78
Simulation Step: 100 Simulation Time (ps): 0.1 PotentialEnergy: 88.14642 kcal/mol Positions: A
C	-0.7798918	7.980635	-7.589414
C	0.01325656	8.114068	-10.04503
C	0.5357248	8.070889	-7.86174
C	-1.559565	7.485744	-8.54684
C	-1.242969	7.960076	-9.709132
C	0.9408518	7.96391	-9.111355
H	2.010408	8.228351	-9.305271
H	0.2556454	8.510366	-10.99707
C	-1.302933	8.484293	-6.474808
C	-2.046033	8.73912	-4.006601
C	-2.556108	8.963899	-6.278808
C	-0.3824277	8.567788	-5.528419
C	-0.7907515	8.433439	-4.319993
C	-2.935899	9.034672	-5.00628
H	-0.423099	7.551348	-3.788299
H	-2.456443	8.677688	-2.987246
C	0.9087079	8.677533	-5.778069
C	1.384614	8.089524	-6.874516
H	1.573662	9.044724	-4.957951
H	2.476024	8.228004	-7.12739
C	-3.388033	9.42977	-7.271209
C	-5.180639	10.24926	-9.001079
C	-2.998604	10.3779	-8.16929
C	-4.677824	9.407311	-6.946042
C	-5.614588	9.677442	-7.864591
C	-3.817214	10.37257	-9.220444
H	-6.486574	8.98203	-7.927498
H	-5.749917	11.20879	-9.213333
C	-5.092651	9.125995	-5.709598
C	-4.220408	8.851864	-4.774727
H	-6.117547	9.449299	-5.439947
H	-4.615202	8.68116	-3.73188
C	-2.695147	6.810536	-8.325374
C	-5.200673	6.003549	-8.012749
C	-3.499246	6.757942	-9.364083
C	-2.969045	6.047607	-7.231362
C	-4.298438	5.820188	-7.052829
C	-4.745644	6.316216	-9.218422
H	-5.48393	6.701178	-9.960631
H	-6.005024	5.23685	-7.96966
C	-1.829226	11.07758	-8.185954
C	0.4637162	12.08849	-8.396884
C	-1.273258	11.29226	-7.014251
C	-1.319931	11.5301	-9.366066
C	-0.0405689	11.73426	-9.581087
C	-0.06459026	11.87503	-7.130694
H	-1.711628	10.83476	-6.0916
H	0.4656908	11.62561	-10.59142
H	0.4420587	12.20052	-6.16117
H	1.367568	12.72737	-8.373955
C	-3.219788	7.269809	-10.54455
C	-2.123046	8.026156	-10.66067
H	-3.966866	7.005891	-11.32021
H	-2.238427	9.004301	-11.14988
C	-3.305804	10.9305	-10.31238
C	-2.190809	11.63257	-10.32944
H	-3.894768	10.792	-11.24876
H	-2.109771	12.47407	-11.07114
C	-4.716879	5.586191	-5.829697
C	-3.779259	5.594373	-4.879265
H	-5.763066	5.281977	-5.628386
C	-2.079652	5.465233	-6.419492
C	-2.522464	5.264502	-5.178097
C	-1.586179	5.011572	-4.280248
C	-0.3367548	4.784821	-4.663154
H	-1.81839	4.831787	-3.217559
H	0.4168213	5.239181	-3.989839
H	-4.090494	5.652627	-3.799207
C	0.05267577	4.743997	-5.914035
C	-0.8692175	5.137056	-6.799331
C	1.321338	4.548053	-6.223295
C	1.408562	4.486367	-7.546638
H	2.119368	4.810879	-5.449968
H	2.434736	4.730091	-7.892662
C	-0.8131505	4.888347	-8.092328
C	0.4633474	4.783426	-8.487535
H	-1.684744	5.112466	-8.814374
H	0.6939386	4.851232	-9.608639
78
Simulation Step: 200 Simulation Time (ps): 0.2 PotentialEnergy: 70.37842 kcal/mol Positions: A
C	-0.931092	7.849536	-7.514416
C	-0.122	7.942916	-10.09553
C	0.3875258	7.961023	-7.872498
C	-1.861106	7.778306	-8.48362
C	-1.434023	7.954058	-9.755105
C	0.7986549	7.772449	-9.145124
H	1.861338	7.733917	-9.49391
H	0.1535038	7.806452	-11.19642
C	-1.347733	8.536499	-6.455487
C	-2.21162	8.854328	-4.043959
C	-2.636305	8.625907	-6.212123
C	-0.4864234	8.427611	-5.430319
C	-0.8998397	8.688848	-4.21875
C	-3.094764	8.492009	-4.95002
H	-0.2160254	8.922439	-3.362224
H	-2.577417	9.456246	-3.173957
C	0.8083045	8.475203	-5.659839
C	1.249133	8.280414	-6.91842
H	1.379023	7.883239	-4.930152
H	2.262049	8.658963	-7.089181
C	-3.286955	9.254644	-7.190788
C	-4.941229	10.02415	-9.140697
C	-2.755777	9.822142	-8.275066
C	-4.617256	9.086691	-7.091525
C	-5.413771	9.193428	-8.192207
C	-3.636122	10.25694	-9.283626
H	-6.499422	8.959757	-8.16398
H	-5.64055	10.51826	-9.862113
C	-5.0797	9.071486	-5.822532
C	-4.328494	8.912225	-4.72577
H	-6.131427	8.718449	-5.737753
H	-4.781159	9.049691	-3.747805
C	-2.849317	6.904453	-8.358268
C	-5.255686	5.953064	-7.887973
C	-3.741505	6.726437	-9.339691
C	-3.074306	6.284362	-7.213536
C	-4.367484	6.110627	-6.908362
C	-4.922409	6.087986	-9.176615
H	-5.730765	5.956328	-9.919407
H	-6.142773	5.304851	-7.692251
C	-1.563493	10.34355	-8.158151
C	0.5998089	11.80901	-7.953534
C	-1.254463	10.87651	-6.959572
C	-1.112226	10.90923	-9.282502
C	0.03854059	11.61337	-9.144291
C	-0.1131318	11.55129	-6.820506
H	-1.995797	10.74961	-6.133986
H	0.4355472	12.16225	-10.01683
H	0.308749	11.69218	-5.819873
H	1.708667	11.73329	-7.966064
C	-3.47755	7.328864	-10.45969
C	-2.231289	7.667752	-10.76445
H	-4.171297	7.307261	-11.32666
H	-1.877667	7.403896	-11.79812
C	-3.205133	11.08968	-10.24492
C	-1.910459	11.27491	-10.29295
H	-3.67199	11.05066	-11.2377
H	-1.421791	11.6851	-11.18213
C	-4.70471	5.777978	-5.675726
C	-3.736145	5.642817	-4.780513
H	-5.738585	5.552228	-5.333436
C	-2.13465	5.757227	-6.477535
C	-2.420898	5.774106	-5.167429
C	-1.468998	5.572375	-4.282161
C	-0.3935539	4.964507	-4.784494
H	-1.669162	5.42666	-3.194393
H	0.09158806	4.124718	-4.223046
H	-3.897896	4.901036	-3.969319
C	-0.02801365	5.172654	-6.104618
C	-0.9397486	5.632043	-6.994176
C	1.038625	4.506186	-6.589153
C	1.323529	4.692152	-7.873587
H	1.931936	4.618323	-5.960807
H	2.371385	4.992252	-8.089885
C	-0.8319067	5.237843	-8.309114
C	0.3502257	4.802675	-8.78113
H	-1.733061	5.22432	-8.954081
H	0.5683622	4.392451	-9.78589
78
Simulation Step: 300 Simulation Time (ps): 0.3 PotentialEnergy: 59.30253 kcal/mol Positions: A
C	-0.9859288	8.061563	-7.702152
C	-0.2012417	8.114198	-10.2512
C	0.3167297	8.034976	-7.905065
C	-1.799108	7.664659	-8.729836
C	-1.324836	7.496842	-9.956718
C	0.6987133	8.11186	-9.217912
H	1.646952	8.601103	-9.441443
H	-0.2678645	8.971181	-11.01038
C	-1.445162	8.080441	-6.393843
C	-2.246546	8.910703	-4.040233
C	-2.687797	8.642771	-6.240708
C	-0.5242821	8.227124	-5.411744
C	-0.9147619	8.785308	-4.270847
C	-3.177894	8.785352	-5.040507
H	-0.2925619	9.578689	-3.855519
H	-2.600233	8.508266	-3.063248
C	0.7945904	8.295979	-5.678877
C	1.119578	7.776669	-6.846877
H	1.515396	8.188073	-4.861302
H	2.112623	7.392013	-7.071563
C	-3.442036	9.02347	-7.268252
C	-4.806214	9.477371	-9.352933
C	-2.900662	9.881069	-8.112086
C	-4.748451	8.793062	-7.22292
C	-5.458149	9.262866	-8.229823
C	-3.523314	9.984082	-9.265549
H	-6.37429	9.78728	-7.996368
H	-5.380277	9.632904	-10.26276
C	-5.30087	8.683673	-6.02085
C	-4.491686	8.670612	-4.935429
H	-6.226685	8.085392	-5.959139
H	-4.765602	8.115779	-4.037446
C	-3.011521	7.172514	-8.38379
C	-5.374355	6.266585	-7.703253
C	-3.855453	6.945443	-9.360698
C	-3.206364	6.604898	-7.144215
C	-4.434677	6.226907	-6.745417
C	-5.094786	6.575948	-8.991451
H	-5.869751	6.632557	-9.773685
H	-6.435318	6.104877	-7.470553
C	-1.638633	10.27361	-7.994713
C	0.6186486	11.51808	-7.588282
C	-1.108745	10.22423	-6.757829
C	-0.9956758	10.81	-9.016925
C	0.1923676	11.36792	-8.871591
C	0.06929919	10.85034	-6.572177
H	-1.793076	10.09701	-5.929034
H	0.8844889	11.27192	-9.726275
H	0.4774882	10.99446	-5.568851
H	1.508285	12.10927	-7.39878
C	-3.526604	7.222346	-10.65412
C	-2.235683	7.513237	-10.9057
H	-4.285307	7.58588	-11.34552
H	-1.84725	7.762969	-11.89963
C	-2.969012	10.73327	-10.20098
C	-1.650094	10.92088	-10.19497
H	-3.583116	10.96045	-11.08001
H	-1.084271	10.72279	-11.10695
C	-4.665923	5.815764	-5.454187
C	-3.629253	5.845393	-4.575087
H	-5.431667	5.031576	-5.335824
C	-2.167039	6.269131	-6.391419
C	-2.40282	6.012428	-5.10558
C	-1.362966	5.616959	-4.389802
C	-0.1769327	5.381217	-4.929851
H	-1.619894	5.213678	-3.416955
H	0.6868913	5.775551	-4.402214
H	-3.800709	6.231815	-3.565396
C	-0.04121576	5.280889	-6.263632
C	-0.9698068	5.948895	-6.948802
C	1.154609	4.976412	-6.786692
C	1.114206	4.834314	-8.095244
H	2.050711	5.02624	-6.187294
H	1.791644	4.132182	-8.570929
C	-0.929577	5.725337	-8.282577
C	0.223057	5.412888	-8.910921
H	-1.805437	5.956661	-8.870507
H	0.2434775	5.347469	-9.997227
78
Simulation Step: 400 Simulation Time (ps): 0.4 PotentialEnergy: 51.49499 kcal/mol Positions: A
C	-0.9633042	8.157275	-7.668956
C	-0.1852743	8.374906	-10.2085
C	0.3222641	7.818481	-8.025487
C	-1.875958	7.986112	-8.583838
C	-1.417402	7.91552	-9.862796
C	0.7250345	8.273682	-9.232224
H	1.555182	9.006061	-9.310102
H	-0.08842009	9.138409	-10.98511
C	-1.428596	8.069643	-6.446836
C	-2.389173	8.549932	-3.972804
C	-2.705909	8.265274	-6.250114
C	-0.5617915	8.186337	-5.447175
C	-1.053055	8.526685	-4.224687
C	-3.225024	8.323532	-5.002796
H	-0.4674146	8.266148	-3.332295
H	-2.7499	8.445195	-2.958049
C	0.7465713	8.167479	-5.759027
C	1.148789	7.864995	-7.01102
H	1.445514	8.60958	-5.020756
H	2.233953	8.053206	-7.246074
C	-3.388528	8.890705	-7.232677
C	-4.804942	9.676432	-9.39917
C	-2.859812	9.639853	-8.186339
C	-4.711848	8.775447	-7.209719
C	-5.3672	9.184026	-8.282465
C	-3.464036	9.724513	-9.422079
H	-6.469306	9.127215	-8.281901
H	-5.384446	10.35786	-10.06689
C	-5.287606	8.526157	-6.045659
C	-4.577479	8.246544	-4.944472
H	-6.351839	8.293582	-6.07036
H	-5.141982	8.229272	-3.961921
C	-3.053112	7.455745	-8.25272
C	-5.543581	6.626198	-7.660709
C	-3.997426	7.321234	-9.192151
C	-3.250046	6.750684	-7.156373
C	-4.512454	6.498183	-6.770735
C	-5.304969	7.082654	-8.917956
H	-6.16664	7.159564	-9.642994
H	-6.528038	6.271139	-7.307761
C	-1.619805	10.09271	-7.953525
C	0.786189	10.98096	-7.573108
C	-1.149504	10.14239	-6.711611
C	-1.053786	10.83999	-8.938959
C	0.1711039	11.31119	-8.703119
C	0.1599439	10.27979	-6.590562
H	-1.733033	10.2149	-5.768094
H	0.6514885	11.80193	-9.572306
H	0.6476905	10.00318	-5.616961
H	1.679137	11.59717	-7.29312
C	-3.521299	7.055372	-10.42221
C	-2.261641	7.416655	-10.75392
H	-4.202467	6.693429	-11.22556
H	-1.889244	6.974764	-11.66731
C	-2.807627	10.37546	-10.41901
C	-1.699592	11.04229	-10.10741
H	-3.270051	10.48981	-11.43128
H	-1.267061	11.75221	-10.86813
C	-4.653839	6.140732	-5.451285
C	-3.609476	5.967121	-4.632816
H	-5.639114	5.846889	-5.031915
C	-2.213464	6.315693	-6.447634
C	-2.361658	6.022156	-5.110781
C	-1.254389	6.021296	-4.345575
C	-0.0641827	5.922376	-4.936834
H	-1.311936	5.652276	-3.312428
H	0.830158	6.224806	-4.340682
H	-3.667562	6.16023	-3.541315
C	0.009709994	5.906945	-6.279397
C	-1.04872	6.202764	-7.070977
C	1.004773	5.19603	-6.824817
C	1.137284	5.162729	-8.175222
H	1.706232	4.699676	-6.104841
H	2.167869	5.142977	-8.569221
C	-1.029216	6.006764	-8.408017
C	0.1700885	5.7179	-8.917223
H	-1.915654	6.190701	-9.094961
H	0.2468033	5.640443	-10.02726
78
Simulation Step: 500 Simulation Time (ps): 0.5 PotentialEnergy: 46.8764 kcal/mol Positions: A
C	-1.003958	8.121989	-7.642376
C	-0.1272931	7.975223	-10.15047
C	0.2789903	8.249696	-7.927426
C	-1.905352	7.95125	-8.655023
C	-1.48346	7.957919	-9.921742
C	0.7492651	7.943693	-9.135144
H	1.775797	8.339543	-9.363047
H	0.2522818	7.816234	-11.15578
C	-1.419123	8.108264	-6.380372
C	-2.331565	7.858534	-3.92943
C	-2.697638	8.444483	-6.083673
C	-0.5479009	7.980044	-5.402378
C	-1.007549	7.914512	-4.147765
C	-3.226315	8.139252	-4.914317
H	-0.3552096	7.296777	-3.487607
H	-2.611426	7.090087	-3.176832
C	0.7874321	8.053333	-5.685543
C	1.098826	8.47977	-6.927589
H	1.499431	7.37592	-5.163246
H	1.786753	9.340389	-7.003095
C	-3.455183	9.000967	-7.036383
C	-4.831649	9.618757	-9.132878
C	-2.883085	9.757537	-7.984719
C	-4.761906	8.801591	-7.017208
C	-5.483085	9.060967	-8.115326
C	-3.558502	10.08569	-9.039258
H	-6.408442	8.465752	-8.273179
H	-5.435267	9.937228	-10.00875
C	-5.324001	8.320696	-5.881717
C	-4.560116	8.220572	-4.782468
H	-6.421453	8.212108	-5.734287
H	-4.954228	8.561436	-3.81351
C	-3.101206	7.37007	-8.441288
C	-5.564756	7.01317	-7.645135
C	-4.044081	7.318151	-9.35116
C	-3.309735	6.740982	-7.273689
C	-4.548914	6.870668	-6.770445
C	-5.292458	7.108904	-8.953931
H	-6.049982	6.971581	-9.71452
H	-6.552014	7.353178	-7.279758
C	-1.59534	10.0105	-7.995109
C	0.941154	10.46969	-7.985406
C	-0.9975172	9.944743	-6.825568
C	-1.009092	10.68291	-8.993372
C	0.2389906	11.15918	-8.84471
C	0.3113733	10.15819	-6.856885
H	-1.524399	9.763426	-5.873394
H	0.6887006	11.9461	-9.454345
H	0.8697325	9.766704	-6.009769
H	2.036881	10.62976	-7.907203
C	-3.652834	7.445091	-10.61733
C	-2.393217	7.817712	-10.88741
H	-4.205813	6.922564	-11.42597
H	-1.989295	7.334127	-11.82528
C	-2.911238	10.42117	-10.1673
C	-1.645627	10.85213	-10.12735
H	-3.365469	10.37273	-11.16116
H	-1.354323	11.69045	-10.75965
C	-4.800506	6.395793	-5.56846
C	-3.775266	6.182001	-4.777674
H	-5.856933	6.18207	-5.345463
C	-2.245227	6.499895	-6.540742
C	-2.523223	6.466591	-5.246148
C	-1.529029	6.03284	-4.499338
C	-0.2971098	6.138134	-4.988466
H	-1.767986	5.166802	-3.835469
H	0.4641508	6.55019	-4.318552
H	-3.963827	5.357158	-4.076908
C	0.01155837	6.040577	-6.278455
C	-1.075859	6.076678	-7.064543
C	1.223198	5.686095	-6.744996
C	1.345922	5.667825	-8.07068
H	1.99381	5.244851	-6.086903
H	2.358039	5.745087	-8.524431
C	-0.9426998	6.113625	-8.400084
C	0.2731853	5.903867	-8.882645
H	-1.830057	5.944855	-9.022946
H	0.3260125	5.666039	-9.960203
78
Simulation Step: 600 Simulation Time (ps): 0.6 PotentialEnergy: 44.84246 kcal/mol Positions: A
C	-0.9576088	8.254112	-7.756687
C	-0.05751984	7.960316	-10.22788
C	0.3615401	7.997466	-7.993168
C	-1.737292	7.741871	-8.664519
C	-1.343757	7.848849	-9.91727
C	0.8406078	8.077509	-9.233397
H	1.881294	8.370378	-9.359017
H	0.3467202	7.503685	-11.18959
C	-1.394498	8.218345	-6.483848
C	-2.253355	7.544255	-4.040202
C	-2.649621	8.497738	-6.144684
C	-0.5550539	7.908315	-5.489878
C	-0.9433175	7.666283	-4.248909
C	-3.098429	7.969705	-4.977888
H	-0.3008138	7.315197	-3.443851
H	-2.667894	7.135832	-3.086345
C	0.7484782	7.952384	-5.76039
C	1.239528	7.743965	-7.000049
H	1.348994	8.540245	-5.063892
H	2.282483	7.504063	-7.09867
C	-3.442523	9.226357	-6.911448
C	-4.917574	9.508805	-9.001816
C	-2.970819	9.871394	-7.953942
C	-4.773716	9.15095	-6.717742
C	-5.511019	9.429451	-7.794766
C	-3.735204	10.1104	-9.014696
H	-6.594646	9.330946	-7.761401
H	-5.574827	9.632744	-9.854408
C	-5.250482	8.657704	-5.558359
C	-4.402645	8.041346	-4.676803
H	-6.343683	8.523587	-5.482285
H	-4.628685	8.264358	-3.640035
C	-2.994865	7.455711	-8.388998
C	-5.463688	6.687618	-8.011374
C	-3.902835	7.526083	-9.3318
C	-3.30557	6.807525	-7.278517
C	-4.599951	6.581297	-7.010002
C	-5.179109	7.489459	-9.024076
H	-5.964922	7.957446	-9.642071
H	-6.473468	6.263429	-7.955027
C	-1.701666	10.24279	-7.95751
C	0.9035191	10.4131	-8.176777
C	-0.9263427	10.12354	-6.856886
C	-1.157208	10.43349	-9.17309
C	0.1382546	10.14436	-9.236463
C	0.381625	10.28285	-6.982255
H	-1.318389	9.837438	-5.873774
H	0.6292089	9.716632	-10.13846
H	1.041798	10.26226	-6.102958
H	1.720423	11.09822	-8.327385
C	-3.555536	7.984375	-10.51058
C	-2.279945	8.249458	-10.76451
H	-4.352847	8.53297	-11.00524
H	-2.017442	8.615412	-11.78648
C	-3.26733	10.79353	-10.04786
C	-1.951399	10.74287	-10.22093
H	-3.945906	11.55097	-10.44973
H	-1.643586	10.42255	-11.21902
C	-4.898037	6.36314	-5.736277
C	-3.92112	6.019462	-4.91453
H	-5.926065	6.385561	-5.358689
C	-2.331622	6.226939	-6.580876
C	-2.678465	5.754714	-5.369886
C	-1.747405	5.554615	-4.454016
C	-0.497376	5.608752	-4.884797
H	-2.012245	5.887611	-3.440904
H	0.3303263	5.770333	-4.206534
H	-4.058355	6.201797	-3.841145
C	-0.1516625	6.091618	-6.102776
C	-1.090954	6.180421	-7.031822
C	1.135471	6.069865	-6.505723
C	1.370081	6.199803	-7.835033
H	1.891297	6.407361	-5.789459
H	2.338697	6.611628	-8.136038
C	-0.8728184	6.100175	-8.359133
C	0.4061929	6.194201	-8.766302
H	-1.654981	5.710013	-9.01308
H	0.6564254	6.212666	-9.823927
78
Simulation Step: 700 Simulation Time (ps): 0.7 PotentialEnergy: 45.86336 kcal/mol Positions: A
C	-0.9249851	8.084677	-7.66723
C	-0.1133542	8.392783	-10.20242
C	0.3578086	8.142604	-7.960689
C	-1.773418	7.946132	-8.678454
C	-1.429409	8.469235	-9.883639
C	0.7397658	8.107731	-9.214164
H	1.780712	7.815786	-9.486896
H	0.1561977	8.268991	-11.2585
C	-1.298053	8.119556	-6.384149
C	-2.240648	7.355295	-4.023147
C	-2.575695	8.32899	-6.100931
C	-0.4469752	7.844282	-5.395835
C	-0.9348071	7.282383	-4.29208
C	-2.988366	8.01282	-4.889123
H	-0.1957904	6.887183	-3.580042
H	-2.540213	7.253127	-2.985097
C	0.8365918	8.146197	-5.661458
C	1.173624	8.423229	-6.945126
H	1.681667	7.983161	-4.967117
H	2.274152	8.569721	-7.167203
C	-3.358701	9.001659	-6.946671
C	-5.024391	10.13857	-8.64281
C	-2.887602	9.757565	-7.960358
C	-4.689198	9.012174	-6.708697
C	-5.539335	9.521929	-7.616426
C	-3.734501	10.22153	-8.879415
H	-6.561194	9.079581	-7.734361
H	-5.523166	11.09368	-8.877561
C	-5.066928	8.741736	-5.452419
C	-4.301341	7.98683	-4.696226
H	-6.119771	8.965309	-5.223861
H	-4.737081	7.576046	-3.746572
C	-3.020512	7.601037	-8.384466
C	-5.496908	6.678519	-8.153284
C	-3.957973	7.96757	-9.228103
C	-3.307986	6.691427	-7.424285
C	-4.590364	6.344087	-7.222984
C	-5.100626	7.315305	-9.251926
H	-5.604505	7.130855	-10.23228
H	-6.529768	6.29123	-8.108253
C	-1.59376	9.970033	-8.19046
C	0.9602569	10.19529	-8.519944
C	-0.8947002	10.58695	-7.247577
C	-1.12602	10.1844	-9.417019
C	0.1942824	10.41865	-9.595711
C	0.4081874	10.51259	-7.365435
H	-1.321161	11.13977	-6.382976
H	0.6102645	10.96357	-10.46346
H	1.064302	10.73359	-6.485916
H	1.503744	9.225141	-8.525968
C	-3.605589	8.620226	-10.32411
C	-2.361973	8.543905	-10.82651
H	-4.440516	8.738504	-11.03269
H	-2.11807	8.609846	-11.86444
C	-3.317463	10.22638	-10.14797
C	-2.015412	10.34913	-10.39935
H	-4.038089	10.20338	-11.00357
H	-1.7016	10.88152	-11.33048
C	-4.943132	6.106248	-5.955405
C	-4.102077	5.386015	-5.238709
H	-5.966808	6.28538	-5.576666
C	-2.388976	6.249592	-6.555786
C	-2.813897	5.71239	-5.375103
C	-1.94107	5.103119	-4.614007
C	-0.6636004	5.123163	-4.936652
H	-2.176505	4.857913	-3.577758
H	-0.03810817	5.247576	-4.034275
H	-4.32754	4.388677	-4.790397
C	-0.2225524	5.765073	-5.998326
C	-1.153169	5.940647	-6.941089
C	1.037513	5.608981	-6.390105
C	1.392234	6.095634	-7.556016
H	1.818807	5.605921	-5.589933
H	2.431711	5.9671	-7.901943
C	-0.8072181	5.982217	-8.230463
C	0.4749747	6.291147	-8.482528
H	-1.599759	5.863796	-9.021648
H	0.6998175	6.636749	-9.523315
78
Simulation Step: 800 Simulation Time (ps): 0.8 PotentialEnergy: 42.68707 kcal/mol Positions: A
C	-0.8643193	8.059188	-7.705653
C	-0.07188033	8.415544	-10.18385
C	0.3824737	8.458211	-7.953029
C	-1.767136	7.907979	-8.678356
C	-1.37813	8.227521	-9.906909
C	0.7461777	8.756233	-9.210535
H	1.623974	9.40212	-9.425626
H	0.1824897	8.638545	-11.20561
C	-1.243938	8.067677	-6.432877
C	-2.138996	7.229925	-4.147976
C	-2.49238	8.418818	-6.03766
C	-0.3600409	7.951019	-5.48188
C	-0.83671	7.449718	-4.352261
C	-2.974065	8.024369	-4.829225
H	-0.1338817	6.879449	-3.702752
H	-2.555891	6.662182	-3.285901
C	0.8833098	7.759809	-5.899226
C	1.289293	8.391453	-6.987288
H	1.583346	7.184297	-5.270888
H	2.333484	8.162548	-7.275745
C	-3.315981	8.983307	-6.912405
C	-5.031901	10.19807	-8.506166
C	-2.872656	9.685073	-7.983015
C	-4.601174	8.985666	-6.583587
C	-5.357732	9.832237	-7.273083
C	-3.745835	10.15744	-8.870018
H	-6.398003	9.871195	-6.956205
H	-5.668895	10.96975	-8.990178
C	-5.058193	8.256375	-5.551272
C	-4.254636	8.150412	-4.519226
H	-6.052561	7.815156	-5.447083
H	-4.631804	7.73053	-3.549759
C	-2.994677	7.381367	-8.500395
C	-5.545817	6.815805	-8.160705
C	-3.922608	7.621111	-9.445288
C	-3.42041	6.861978	-7.31319
C	-4.71136	6.516785	-7.197795
C	-5.202152	7.642077	-9.13139
H	-5.870612	8.312377	-9.658356
H	-6.421149	6.164332	-8.260204
C	-1.544914	9.776341	-8.220943
C	0.9250634	10.7112	-8.535677
C	-0.6379683	9.760009	-7.219029
C	-1.15773	10.30789	-9.378291
C	0.1595884	10.42585	-9.578909
C	0.5955773	10.25651	-7.350121
H	-1.058398	9.811604	-6.206541
H	0.5872861	10.2757	-10.5722
H	1.378362	10.13032	-6.598856
H	1.906996	11.23744	-8.595618
C	-3.530608	8.00912	-10.67491
C	-2.233845	8.171586	-10.94736
H	-4.260781	8.361378	-11.43621
H	-1.904285	7.74692	-11.92949
C	-3.317827	10.74718	-9.990644
C	-2.030211	10.72201	-10.2887
H	-4.009506	10.99012	-10.7992
H	-1.662776	11.40951	-11.03896
C	-5.078875	5.608819	-6.277294
C	-4.296084	5.211869	-5.287906
H	-6.134052	5.299736	-6.293767
C	-2.580723	6.047744	-6.688877
C	-3.004787	5.463405	-5.543794
C	-2.097533	5.021418	-4.67628
C	-0.8368256	4.990049	-5.037706
H	-2.389967	4.706522	-3.661283
H	-0.1676616	4.281437	-4.495204
H	-4.624403	4.554957	-4.466882
C	-0.4131511	5.797873	-6.034314
C	-1.276931	6.11598	-7.000315
C	0.8871208	5.722633	-6.332273
C	1.305323	5.852847	-7.552691
H	1.569379	5.341734	-5.548844
H	2.269032	6.370971	-7.716908
C	-0.8454881	6.315716	-8.236937
C	0.4169359	6.057077	-8.526447
H	-1.580538	6.293608	-9.044837
H	0.6994688	6.211741	-9.569059
78
Simulation Step: 900 Simulation Time (ps): 0.9 PotentialEnergy: 45.35399 kcal/mol Positions: A
C	-0.8927208	7.812926	-7.820147
C	-0.02247405	8.047181	-10.38618
C	0.4095686	8.028235	-8.081409
C	-1.711055	7.61761	-8.820945
C	-1.194747	7.501219	-10.07613
C	0.814586	8.228325	-9.34775
H	1.615086	8.954299	-9.505166
H	-0.1161536	8.935482	-11.07178
C	-1.294384	7.795353	-6.553808
C	-2.042485	7.535347	-3.991558
C	-2.454592	8.20479	-6.156981
C	-0.4241531	7.544302	-5.561492
C	-0.7680464	7.378369	-4.267493
C	-2.895508	7.729995	-4.990815
H	-0.04604948	7.030169	-3.530126
H	-2.254842	7.914993	-2.954738
C	0.8660612	7.577487	-5.813286
C	1.257132	7.835096	-7.066286
H	1.557741	7.607351	-4.96573
H	2.208697	7.41226	-7.303784
C	-3.260819	9.012059	-6.83665
C	-5.085512	10.08829	-8.392992
C	-2.870119	9.692474	-7.903869
C	-4.50079	9.201099	-6.376581
C	-5.368019	9.851736	-7.117411
C	-3.798658	10.2138	-8.718242
H	-6.090469	10.49451	-6.603802
H	-5.819692	10.35746	-9.146875
C	-5.000536	8.379854	-5.469175
C	-4.210304	7.579782	-4.752211
H	-5.935072	8.719867	-4.99934
H	-4.567024	6.619263	-4.436739
C	-3.020987	7.521324	-8.51523
C	-5.547554	7.360346	-8.019039
C	-3.866541	7.706423	-9.502426
C	-3.413666	6.91583	-7.398472
C	-4.688628	6.544913	-7.387871
C	-5.161797	7.792258	-9.212524
H	-5.792868	8.533669	-9.741401
H	-5.868706	8.227185	-7.419453
C	-1.602191	10.12522	-8.036936
C	0.9549212	10.90564	-8.327192
C	-0.7399345	9.897985	-7.068047
C	-1.210189	10.85178	-9.13899
C	0.08351836	11.21964	-9.251179
C	0.4911843	10.38287	-7.180851
H	-1.035776	9.323611	-6.185373
H	0.4658655	11.8474	-10.09092
H	1.159929	10.15031	-6.347471
H	1.85558	11.49437	-8.294071
C	-3.41325	7.506231	-10.75506
C	-2.116717	7.263886	-11.00771
H	-4.097328	7.581458	-11.59955
H	-1.83468	7.088754	-12.06586
C	-3.390792	11.03282	-9.680087
C	-2.111084	11.15422	-10.06717
H	-4.174182	11.10504	-10.45289
H	-1.914548	11.32336	-11.14024
C	-5.146266	5.740874	-6.442668
C	-4.332878	5.353437	-5.491155
H	-6.184453	5.789834	-6.089416
C	-2.602797	6.054797	-6.800278
C	-3.024153	5.569483	-5.634555
C	-2.154962	5.062101	-4.783468
C	-0.8641031	5.377431	-4.963957
H	-2.505359	4.177956	-4.227842
H	-0.1412932	5.509681	-4.167823
H	-4.699465	5.145229	-4.477834
C	-0.4248142	5.63541	-6.189805
C	-1.314669	5.899155	-7.167269
C	0.8575681	5.846462	-6.42023
C	1.260023	5.959187	-7.691631
H	1.516642	6.097454	-5.598261
H	2.299602	6.17367	-7.919542
C	-0.8975893	6.05444	-8.442363
C	0.4108671	6.231684	-8.644721
H	-1.580768	6.046585	-9.294795
H	0.7795001	6.379834	-9.674171
78
Simulation Step: 1000 Simulation Time (ps): 1 PotentialEnergy: 46.47181 kcal/mol Positions: A
C	-0.7865763	7.980532	-7.91865
C	0.06377718	7.616107	-10.46301
C	0.5091496	8.049635	-8.201441
C	-1.631008	7.61266	-8.892071
C	-1.255405	7.54878	-10.17853
C	0.903942	7.59151	-9.438741
H	1.961851	7.28174	-9.556179
H	0.4796008	7.952192	-11.45557
C	-1.206538	7.865369	-6.631197
C	-1.885963	7.299794	-4.124544
C	-2.468206	8.052339	-6.20719
C	-0.2960156	7.667536	-5.679098
C	-0.6112052	7.508089	-4.393852
C	-2.854135	7.616284	-4.979592
H	0.220125	7.480925	-3.656476
H	-2.113614	7.093266	-3.100936
C	0.9890468	7.508541	-6.003695
C	1.359884	8.073296	-7.149687
H	1.62598	6.762961	-5.462642
H	2.443228	7.865177	-7.388784
C	-3.285038	8.926395	-6.86595
C	-5.072435	10.19657	-8.259451
C	-2.865961	9.767191	-7.860121
C	-4.539805	9.0733	-6.375528
C	-5.458933	9.676732	-7.098541
C	-3.779965	10.2854	-8.657752
H	-6.43553	10.03347	-6.663314
H	-5.866775	10.54791	-8.947771
C	-4.902184	8.523585	-5.226488
C	-4.130614	7.628953	-4.625606
H	-5.938751	8.715979	-4.874819
H	-4.42094	7.173405	-3.652462
C	-2.913233	7.500011	-8.599866
C	-5.372889	7.667232	-8.08125
C	-3.727024	7.721887	-9.608053
C	-3.392898	6.839845	-7.542972
C	-4.71981	6.830687	-7.302701
C	-4.97788	7.958388	-9.305256
H	-5.681064	8.480309	-10.00184
H	-6.373118	7.956323	-7.754817
C	-1.679089	10.40445	-7.741341
C	0.8740772	11.06042	-7.906675
C	-0.7659453	9.98808	-6.843796
C	-1.320703	11.31061	-8.602592
C	-0.07163548	11.78369	-8.499682
C	0.5429596	10.22357	-6.960898
H	-1.208624	9.447277	-5.980737
H	0.1322508	12.72694	-9.030535
H	1.207549	9.814899	-6.151747
H	1.810132	10.82695	-8.45274
C	-3.44381	7.287375	-10.82187
C	-2.118246	7.174531	-11.12056
H	-4.131475	6.595147	-11.37146
H	-1.768886	6.406	-11.79723
C	-3.364205	10.94216	-9.750684
C	-2.108721	11.43533	-9.693688
H	-3.777293	10.7006	-10.74667
H	-1.812628	12.27902	-10.3651
C	-5.161498	6.282349	-6.148877
C	-4.357008	5.430587	-5.503873
H	-6.185189	6.495595	-5.818607
C	-2.64804	5.925312	-6.952868
C	-3.079438	5.49836	-5.783708
C	-2.255507	5.607668	-4.765544
C	-0.9830005	5.421233	-5.075845
H	-2.63414	5.291545	-3.782881
H	-0.2904224	5.335877	-4.21143
H	-4.788199	4.616283	-4.884824
C	-0.5332422	5.67511	-6.302524
C	-1.391288	5.663801	-7.313562
C	0.7820255	5.502286	-6.613062
C	1.129405	5.816538	-7.846501
H	1.431316	4.742396	-6.097987
H	2.206363	6.003766	-8.015869
C	-0.9861866	5.592971	-8.614885
C	0.3003154	5.764021	-8.878138
H	-1.693299	5.551007	-9.495896
H	0.7048385	5.991482	-9.889998
78
Simulation Step: 1100 Simulation Time (ps): 1.1 PotentialEnergy: 99.21526 kcal/mol Positions: A
C	-0.7941567	7.800831	-7.986278
C	0.04790613	7.107826	-10.49859
C	0.5067326	7.6934	-8.34837
C	-1.670315	7.460052	-8.91419
C	-1.237266	7.181149	-10.14863
C	0.9316617	7.575187	-9.618267
H	1.990597	7.701147	-9.902072
H	0.3556821	6.434118	-11.28381
C	-1.078938	7.873983	-6.671402
C	-1.650344	7.510755	-4.164036
C	-2.347015	7.983442	-6.23529
C	-0.1237968	7.991944	-5.766354
C	-0.3741268	7.579087	-4.535115
C	-2.685696	7.557452	-5.009618
H	0.4203036	7.642526	-3.75575
H	-1.898088	7.712289	-3.099399
C	1.124858	7.884235	-6.116163
C	1.407517	7.719305	-7.412245
H	1.914298	8.34724	-5.502502
H	2.456578	7.48934	-7.69614
C	-3.203086	8.721834	-6.963627
C	-4.918541	9.98732	-8.421987
C	-2.715254	9.64	-7.828736
C	-4.465341	8.761407	-6.572022
C	-5.329974	9.259279	-7.390731
C	-3.620968	10.27921	-8.604668
H	-6.300175	9.492458	-6.944607
H	-5.644232	10.58247	-9.014474
C	-4.809352	8.405622	-5.363118
C	-3.960265	7.737761	-4.585219
H	-5.825131	8.048256	-5.220556
H	-4.183222	7.75381	-3.479803
C	-2.968629	7.58899	-8.688925
C	-5.583331	7.437863	-8.256206
C	-3.850461	7.799757	-9.675345
C	-3.402006	6.978573	-7.594245
C	-4.712423	7.015699	-7.314716
C	-5.193715	7.840388	-9.474038
H	-5.89318	7.772021	-10.30396
H	-6.531567	7.810438	-7.846488
C	-1.59602	10.32401	-7.555931
C	0.8937995	11.27267	-7.525887
C	-0.7669646	9.942558	-6.591916
C	-1.227548	11.37174	-8.356606
C	-0.02133688	11.93346	-8.256693
C	0.5130903	10.105	-6.95383
H	-1.115183	9.384388	-5.719225
H	0.2276592	12.82355	-8.842741
H	1.206266	9.595524	-6.290059
H	1.963639	11.31219	-7.867879
C	-3.402174	7.63547	-10.91203
C	-2.08671	7.527999	-11.10081
H	-4.139872	7.527697	-11.71963
H	-1.725886	7.894575	-12.10197
C	-3.286523	11.36041	-9.355844
C	-2.112404	11.93369	-9.147029
H	-3.972848	11.80905	-10.08541
H	-1.839388	12.88042	-9.602235
C	-5.162827	6.668858	-6.108965
C	-4.329794	5.918273	-5.357139
H	-6.238339	6.808931	-5.834399
C	-2.640086	6.04402	-6.973125
C	-3.068497	5.663571	-5.762575
C	-2.279891	5.257839	-4.837821
C	-1.046608	5.150716	-5.098749
H	-2.671773	4.73206	-3.945764
H	-0.3772254	5.067078	-4.228338
H	-4.773985	5.317337	-4.566867
C	-0.5592876	5.624699	-6.162805
C	-1.33937	5.748522	-7.298402
C	0.6783516	5.356402	-5.920414
C	1.234769	4.941123	-6.952118
H	1.197976	5.465619	-4.954037
H	2.30793	5.269307	-6.97289
C	-0.6967915	5.652563	-8.495465
C	0.6089019	5.274453	-8.295897
H	-1.222711	5.701715	-9.466917
H	1.160533	4.974405	-9.191018
78
Simulation Step: 1200 Simulation Time (ps): 1.2 PotentialEnergy: 923.7924 kcal/mol Positions: A
C	-0.3959036	7.722428	-8.040384
C	0.364145	7.131854	-10.60677
C	0.8628891	7.394877	-8.335386
C	-1.22192	7.186932	-8.862404
C	-0.8586223	7.44838	-10.19632
C	1.225353	7.027647	-9.591648
H	2.261434	6.779876	-9.847809
H	0.634445	7.173143	-11.67957
C	-0.8888587	7.714046	-6.769886
C	-1.527308	7.800788	-4.19651
C	-2.178177	7.946983	-6.410932
C	0.0470167	7.7966	-5.853236
C	-0.2522979	7.686711	-4.562503
C	-2.511763	7.77448	-5.103498
H	0.5128472	7.624951	-3.788578
H	-1.790416	7.384978	-3.201979
C	1.335242	7.864779	-6.221611
C	1.681801	7.953014	-7.502406
H	2.131769	7.518716	-5.549881
H	2.635574	8.312182	-7.860184
C	-3.063209	8.659206	-7.154371
C	-4.803539	9.910197	-8.627781
C	-2.666605	9.751352	-7.846394
C	-4.362616	8.51419	-6.853602
C	-5.20856	9.145602	-7.630327
C	-3.602461	10.43256	-8.506683
H	-6.255641	9.042933	-7.347853
H	-5.19829	9.73594	-9.629009
C	-4.758006	8.243056	-5.612475
C	-3.804896	7.899056	-4.719121
H	-5.861926	8.061082	-5.548236
H	-4.132395	7.783557	-3.709493
C	-2.470529	6.650587	-8.173302
C	-4.875458	7.296951	-8.256946
C	-3.201513	7.242856	-9.487343
C	-3.163261	5.825655	-6.792371
C	-4.321546	6.48544	-7.296342
C	-4.450061	7.570058	-9.433853
H	-5.007152	8.093075	-10.23489
H	-5.962288	7.459095	-8.194729
C	-1.432809	10.25517	-7.632299
C	0.9639913	11.25777	-7.480333
C	-0.5878185	9.672621	-6.760164
C	-1.152912	11.42035	-8.245469
C	0.1074427	11.83756	-8.322179
C	0.590154	10.25722	-6.634143
H	-1.053833	9.104291	-5.932335
H	0.364254	12.82284	-8.777527
H	1.261079	9.940425	-5.805592
H	1.939694	11.71718	-7.347454