78
Simulation Step: 100 Simulation Time (ps): 0.1 PotentialEnergy: 81.68558 kcal/mol Positions: A
C	-0.04927023	-8.867578	-5.593447
C	0.5066035	-9.985865	-7.979383
C	-0.9076899	-9.586713	-6.291664
C	1.082921	-8.522099	-6.21099
C	1.361032	-9.252989	-7.30061
C	-0.6477635	-10.21457	-7.426976
H	-1.220685	-11.11502	-7.607141
H	0.5187061	-9.760521	-9.06131
C	-0.2663593	-8.729505	-4.281066
C	-0.8693138	-7.318795	-2.250244
C	0.6654199	-8.701863	-3.263575
C	-1.555049	-8.61635	-3.979544
C	-1.864579	-7.843543	-2.959466
C	0.3144678	-7.927838	-2.236486
H	-2.901127	-7.83492	-2.54433
H	-1.118588	-6.762956	-1.324725
C	-2.518596	-8.850481	-4.885598
C	-2.191784	-9.527184	-5.981292
H	-3.538779	-9.0795	-4.474804
H	-3.032229	-9.854258	-6.682511
C	1.831484	-9.405813	-3.221607
C	4.211005	-10.33142	-3.378787
C	1.975348	-10.66936	-3.692361
C	2.744837	-8.924763	-2.350175
C	3.96314	-9.42382	-2.398097
C	3.217926	-10.93951	-4.036225
H	4.763774	-9.138668	-1.671441
H	5.209419	-10.32153	-3.859827
C	2.49065	-7.823061	-1.676109
C	1.271797	-7.326555	-1.573915
H	3.338854	-7.330159	-1.146234
H	1.095042	-6.7417	-0.6649677
C	1.923912	-7.57643	-5.730556
C	3.950902	-5.907498	-5.073586
C	3.191512	-7.84643	-6.072195
C	1.623813	-6.4237	-5.118808
C	2.717617	-5.798209	-4.56286
C	4.184675	-7.003518	-5.80526
H	5.235605	-7.18347	-6.144634
H	4.429175	-4.895947	-5.341511
C	0.993808	-11.46219	-4.10681
C	-0.5902624	-13.32231	-4.574907
C	-0.2514685	-11.26862	-3.625628
C	1.150434	-12.23709	-5.192323
C	0.3182871	-13.17764	-5.560899
C	-1.001647	-12.39317	-3.679827
H	-0.6016427	-10.33392	-3.159695
H	0.2088745	-13.3366	-6.650586
H	-1.992487	-12.44593	-3.122339
H	-1.143945	-14.2529	-4.55093
C	3.487711	-8.895946	-6.814086
C	2.586587	-9.480896	-7.608488
H	4.467439	-9.394657	-6.671738
H	2.795659	-10.49383	-7.782786
C	3.425468	-11.92939	-4.846717
C	2.406835	-12.37321	-5.545334
H	4.355918	-12.53037	-4.819307
H	2.587061	-12.9472	-6.453281
C	2.535009	-4.861559	-3.616355
C	1.254391	-4.522906	-3.38456
H	3.25025	-4.87013	-2.746252
C	0.4180226	-5.838056	-5.061073
C	0.1937204	-5.049396	-4.02987
C	-0.9613111	-4.472115	-4.02445
C	-1.889433	-4.683605	-4.949146
H	-1.186234	-3.908455	-3.096475
H	-2.812068	-4.064669	-4.991868
H	1.091116	-3.965714	-2.454039
C	-1.606987	-5.343407	-6.037749
C	-0.4166307	-5.952694	-6.07146
C	-2.471209	-5.290823	-7.005475
C	-1.900788	-5.633938	-8.123845
H	-3.573437	-5.216182	-6.79227
H	-2.585783	-5.908847	-8.959638
C	0.1831899	-6.355878	-7.17828
C	-0.6673809	-6.230897	-8.235103
H	1.223446	-6.804004	-7.20053
H	-0.273032	-6.567771	-9.237877
78
Simulation Step: 200 Simulation Time (ps): 0.2 PotentialEnergy: 71.62029 kcal/mol Positions: A
C	0.0957714	-9.153555	-5.505287
C	0.5969386	-9.590384	-8.018245
C	-0.8775002	-9.779483	-6.261121
C	1.221771	-8.757195	-6.065309
C	1.563792	-9.526386	-7.096879
C	-0.6603538	-9.654896	-7.549489
H	-1.461095	-9.829726	-8.314103
H	0.6473709	-8.818709	-8.821333
C	-0.2556741	-8.606304	-4.37323
C	-0.9365005	-7.27291	-2.261976
C	0.619969	-8.445754	-3.439191
C	-1.53796	-8.636824	-3.991127
C	-1.920179	-7.871439	-2.962689
C	0.3282179	-7.542219	-2.515958
H	-2.979869	-7.662878	-2.712206
H	-1.270934	-6.784832	-1.330396
C	-2.437454	-9.394709	-4.633851
C	-2.150838	-9.811488	-5.869431
H	-3.427233	-9.608182	-4.196899
H	-2.956569	-10.15543	-6.520944
C	1.770485	-9.087061	-3.542141
C	3.984132	-10.56747	-3.235342
C	1.902884	-10.22293	-4.218769
C	2.627465	-8.842115	-2.575078
C	3.819945	-9.430135	-2.582909
C	3.129659	-10.78706	-4.251983
H	4.746261	-8.899105	-2.324166
H	5.048336	-10.84946	-3.408346
C	2.377586	-7.814426	-1.740338
C	1.284914	-7.016277	-1.773638
H	3.167521	-7.531399	-1.007878
H	1.138111	-6.164935	-1.060433
C	2.043319	-7.819013	-5.582552
C	3.628982	-5.811802	-5.133132
C	3.310998	-7.873573	-6.0024
C	1.600332	-6.718248	-4.97841
C	2.54804	-6.01094	-4.396339
C	4.121168	-6.819084	-5.817406
H	5.075361	-6.732884	-6.345357
H	4.391828	-5.062929	-4.815788
C	0.8569335	-11.01464	-4.326172
C	-0.7383789	-13.13319	-4.281147
C	-0.09944823	-11.11825	-3.351727
C	1.080342	-12.01655	-5.210616
C	0.1714589	-13.02815	-5.242792
C	-0.9227753	-12.18549	-3.339957
H	-0.4256108	-10.20247	-2.795454
H	0.3244435	-13.98261	-5.814209
H	-0.9820104	-12.65512	-2.32619
H	-1.593022	-13.83502	-4.454284
C	3.757666	-8.972162	-6.621751
C	2.849265	-9.560122	-7.43371
H	4.631842	-9.590315	-6.301221
H	3.054962	-9.264233	-8.494972
C	3.432491	-11.66238	-5.215714
C	2.347405	-12.2793	-5.632679
H	4.313555	-11.53193	-5.886124
H	2.483849	-12.92632	-6.555732
C	2.227912	-5.012048	-3.566785
C	0.9844229	-4.91926	-3.121093
H	2.920186	-4.267729	-3.16728
C	0.3757513	-6.235663	-4.971363
C	0.0334899	-5.369065	-3.945732
C	-1.214247	-4.985554	-3.72798
C	-1.991096	-5.128705	-4.789301
H	-1.72358	-4.869178	-2.750812
H	-2.790414	-4.356897	-4.916883
H	0.7578331	-4.146537	-2.34028
C	-1.576463	-5.768466	-5.965573
C	-0.3185074	-6.273222	-6.078654
C	-2.153117	-5.439009	-7.185471
C	-1.64632	-5.920723	-8.361364
H	-3.264215	-5.363291	-7.245005
H	-2.394884	-6.213468	-9.145428
C	0.2149253	-6.713454	-7.242426
C	-0.4118256	-6.467079	-8.438866
H	1.243772	-7.113882	-7.267437
H	0.01858599	-6.599791	-9.438704
78
Simulation Step: 300 Simulation Time (ps): 0.3 PotentialEnergy: 60.34529 kcal/mol Positions: A
C	-0.07837804	-8.721996	-5.778632
C	0.5757752	-9.700118	-8.274559
C	-1.015481	-9.277026	-6.516417
C	1.195847	-8.770045	-6.255559
C	1.546318	-9.387363	-7.382667
C	-0.6657599	-9.652969	-7.769587
H	-1.45287	-10.15745	-8.368351
H	0.8376617	-10.13228	-9.247231
C	-0.4011475	-8.383577	-4.468567
C	-1.006012	-7.17333	-2.235064
C	0.6104622	-8.157637	-3.565906
C	-1.612793	-8.533412	-3.958631
C	-1.987856	-7.920743	-2.823463
C	0.3114494	-7.47974	-2.460712
H	-3.002092	-7.645186	-2.548749
H	-1.221022	-6.136021	-1.974774
C	-2.352629	-9.465031	-4.540377
C	-1.908531	-9.920985	-5.754691
H	-2.940542	-10.12751	-3.918299
H	-2.601147	-10.51955	-6.333983
C	1.727858	-8.923288	-3.414714
C	4.122539	-10.19782	-3.604192
C	1.846713	-10.00672	-4.139801
C	2.786893	-8.564199	-2.622277
C	3.939003	-9.276279	-2.615093
C	3.083037	-10.3305	-4.478083
H	4.648006	-9.175426	-1.781657
H	4.868874	-10.99574	-3.50051
C	2.490746	-7.727727	-1.6045
C	1.272487	-7.15774	-1.576874
H	3.305326	-7.422169	-0.9626219
H	0.9485822	-6.592464	-0.697757
C	2.130247	-7.969298	-5.644848
C	3.812161	-6.234722	-4.470382
C	3.404444	-8.0183	-5.973993
C	1.687461	-6.98762	-4.816796
C	2.501801	-6.044695	-4.311114
C	4.194534	-7.091365	-5.447737
H	5.272765	-7.180052	-5.566685
H	4.488533	-5.874221	-3.726548
C	0.8138843	-10.84717	-4.220617
C	-0.8395931	-12.87205	-4.049631
C	-0.03896226	-10.9007	-3.20531
C	0.9898401	-11.9328	-4.991214
C	0.1218712	-12.94908	-4.943255
C	-0.9759766	-11.83452	-3.245058
H	-0.05945962	-10.08159	-2.486526
H	0.2572902	-13.79099	-5.616424
H	-1.837232	-11.77547	-2.57872
H	-1.510571	-13.72401	-3.951931
C	3.794843	-8.893682	-6.952919
C	2.853086	-9.738081	-7.424373
H	4.515151	-8.532894	-7.680923
H	3.238134	-10.66595	-7.964036
C	3.164372	-11.25228	-5.413792
C	2.168852	-12.12817	-5.582355
H	3.976816	-11.11916	-6.133893
H	2.124282	-12.63393	-6.551915
C	1.908356	-5.087481	-3.561359
C	0.7186428	-5.388615	-3.024135
H	2.522804	-4.307068	-3.096213
C	0.3708197	-6.735796	-4.842198
C	-0.1210642	-6.134309	-3.788301
C	-1.364655	-5.722713	-3.87835
C	-2.045931	-5.76044	-5.002727
H	-1.753156	-5.324282	-2.956569
H	-2.888499	-5.077963	-5.067904
H	0.2318042	-4.626922	-2.41204
C	-1.499079	-6.134221	-6.147569
C	-0.2678474	-6.574826	-6.007983
C	-1.961713	-5.595785	-7.266911
C	-1.451739	-6.168256	-8.358434
H	-2.989951	-5.247528	-7.2188
H	-1.904924	-6.033065	-9.350303
C	0.2972415	-7.073231	-7.104084
C	-0.2597933	-6.794764	-8.27319
H	1.353389	-7.305278	-7.145064
H	0.23883	-7.117919	-9.198044
78
Simulation Step: 400 Simulation Time (ps): 0.4 PotentialEnergy: 52.61887 kcal/mol Positions: A
C	0.01061446	-9.114297	-5.588078
C	0.741228	-10.29031	-7.810299
C	-0.9276915	-9.473801	-6.467849
C	1.234123	-8.942644	-6.033487
C	1.576645	-9.415946	-7.229676
C	-0.5746713	-10.10397	-7.565126
H	-1.325483	-10.46494	-8.260811
H	1.067679	-11.34214	-7.741527
C	-0.3213708	-8.528966	-4.440607
C	-1.038729	-7.33	-2.158398
C	0.5594713	-8.20543	-3.481566
C	-1.622158	-8.471817	-4.158843
C	-1.92932	-7.883615	-3.003572
C	0.2396823	-7.357833	-2.478341
H	-2.926762	-7.417275	-3.073566
H	-1.287709	-7.49078	-1.085139
C	-2.501003	-9.188654	-4.852864
C	-2.190584	-9.649912	-6.079807
H	-3.475492	-9.444214	-4.387672
H	-3.067093	-9.57162	-6.801414
C	1.691897	-8.83288	-3.468232
C	4.086493	-9.572968	-4.061517
C	1.842988	-9.944508	-4.169327
C	2.679476	-8.283932	-2.772774
C	3.845047	-8.904688	-2.939546
C	3.053369	-10.18362	-4.684563
H	4.297718	-9.443615	-2.084487
H	5.099697	-9.973792	-4.29326
C	2.410223	-7.504861	-1.723147
C	1.17658	-7.080625	-1.543137
H	3.2304	-6.921918	-1.234043
H	0.941714	-6.682148	-0.5401806
C	2.076007	-8.072549	-5.514989
C	3.874335	-6.668333	-4.256078
C	3.369916	-8.04933	-5.902369
C	1.658641	-6.994674	-4.914906
C	2.535113	-6.386393	-4.1106
C	4.331259	-7.586176	-5.081094
H	5.322729	-8.105114	-5.004066
H	4.489734	-5.81676	-3.897711
C	0.8546215	-10.81384	-4.14516
C	-0.9795567	-12.6374	-3.878563
C	-0.2782905	-10.49355	-3.473616
C	1.009363	-11.90023	-4.900948
C	0.09828492	-12.86196	-4.666138
C	-1.119441	-11.4997	-3.221331
H	-0.4121607	-9.588045	-2.860892
H	0.06433162	-13.71022	-5.362491
H	-2.026141	-11.33923	-2.623259
H	-1.637667	-13.46581	-3.596215
C	3.731654	-8.776629	-6.940857
C	2.77942	-9.274384	-7.746716
H	4.806571	-8.985906	-7.115395
H	2.8777	-9.115683	-8.815929
C	3.281215	-11.32695	-5.351987
C	2.209761	-12.13664	-5.499091
H	4.309772	-11.7118	-5.529532
H	2.216853	-12.76529	-6.379339
C	1.940509	-5.684888	-3.097394
C	0.6066414	-5.450432	-3.030412
H	2.570417	-5.282185	-2.266311
C	0.4598221	-6.525777	-5.047646
C	-0.1707768	-5.975463	-3.980024
C	-1.489236	-5.859125	-3.893579
C	-2.20742	-6.345467	-4.882787
H	-1.963564	-5.625486	-2.916687
H	-3.181856	-6.838912	-4.732432
H	0.1727076	-5.252678	-2.031166
C	-1.567174	-6.517634	-6.0392
C	-0.2606362	-6.794609	-6.089671
C	-1.968722	-6.045413	-7.20185
C	-1.409569	-6.472021	-8.343953
H	-2.77855	-5.284844	-7.19884
H	-1.586368	-5.787081	-9.178921
C	0.3297418	-7.348184	-7.175407
C	-0.2981703	-7.198777	-8.336166
H	1.310292	-7.921699	-7.174786
H	0.2404943	-7.510515	-9.257466
78
Simulation Step: 500 Simulation Time (ps): 0.5 PotentialEnergy: 46.73133 kcal/mol Positions: A
C	-0.03660299	-9.005277	-5.608367
C	0.7527552	-10.65194	-7.550294
C	-0.9026151	-9.926513	-6.081126
C	1.266356	-9.083012	-5.939885
C	1.624416	-9.822308	-6.990253
C	-0.420697	-10.8168	-6.96659
H	-1.09692	-11.58095	-7.400568
H	1.012851	-11.07535	-8.543089
C	-0.3900509	-8.276686	-4.526087
C	-1.218377	-7.211889	-2.271451
C	0.4716128	-8.20802	-3.517394
C	-1.69506	-8.112274	-4.361793
C	-2.072011	-7.812194	-3.122387
C	0.06952085	-7.640862	-2.394647
H	-3.156874	-7.846494	-2.849527
H	-1.595033	-6.951528	-1.266457
C	-2.586864	-8.602026	-5.295059
C	-2.144247	-9.477337	-6.217473
H	-3.475601	-8.026716	-5.661971
H	-2.568285	-9.494038	-7.239694
C	1.687204	-8.747534	-3.656793
C	4.085207	-9.436259	-4.258621
C	1.881433	-9.870776	-4.343577
C	2.693265	-8.235663	-2.950892
C	3.928722	-8.485113	-3.334662
C	3.110302	-10.31135	-4.442766
H	4.722573	-7.815399	-2.976492
H	5.086498	-9.528049	-4.704182
C	2.345297	-7.463514	-1.908458
C	1.070891	-7.158451	-1.699753
H	3.023972	-7.33408	-1.035465
H	0.7755076	-6.710641	-0.7292837
C	2.1278	-8.168408	-5.436298
C	3.757371	-6.881993	-3.965582
C	3.409881	-8.316025	-5.701917
C	1.654469	-7.117452	-4.785032
C	2.435347	-6.681672	-3.772267
C	4.264804	-7.629432	-4.9671
H	5.164616	-7.286219	-5.496864
H	4.45854	-6.114498	-3.553506
C	0.8912508	-10.78563	-4.296946
C	-0.9723163	-12.62729	-3.993967
C	-0.305291	-10.41472	-3.856005
C	1.068922	-12.03202	-4.760143
C	0.1196536	-13.00177	-4.62777
C	-1.149778	-11.38148	-3.598198
H	-0.5170541	-9.414598	-3.408271
H	0.3600789	-14.08725	-4.822934
H	-2.191526	-11.08354	-3.292731
H	-1.757342	-13.38305	-3.777542
C	3.695915	-8.906926	-6.885697
C	2.737968	-9.478333	-7.630798
H	4.543252	-8.491589	-7.467696
H	2.809011	-9.557443	-8.716746
C	3.29205	-11.43278	-5.091799
C	2.304376	-12.31441	-5.158816
H	4.265388	-11.66418	-5.537517
H	2.637177	-13.38476	-5.112947
C	1.997272	-5.72718	-2.935961
C	0.6989903	-5.431116	-2.911016
H	2.617774	-5.521722	-2.058938
C	0.4076718	-6.61434	-4.930879
C	-0.08925267	-5.897763	-3.927695
C	-1.337258	-5.467684	-4.136384
C	-2.128191	-6.099186	-4.97258
H	-1.721838	-4.823696	-3.328986
H	-3.197992	-6.198298	-4.709795
H	0.2515375	-5.113329	-1.936651
C	-1.658578	-6.679132	-6.027512
C	-0.3666574	-6.943841	-5.993302
C	-2.429153	-6.795803	-7.136798
C	-1.796536	-6.965726	-8.315937
H	-3.5331	-6.813961	-7.090788
H	-2.377131	-7.12041	-9.254357
C	0.2260144	-7.214013	-7.169271
C	-0.462168	-7.056043	-8.30276
H	1.167175	-7.731298	-7.176292
H	0.04357032	-7.136851	-9.268771
78
Simulation Step: 600 Simulation Time (ps): 0.6 PotentialEnergy: 42.50974 kcal/mol Positions: A
C	-0.08207791	-8.994667	-5.683528
C	0.7515447	-10.96309	-7.243732
C	-0.966514	-9.876999	-6.191887
C	1.131386	-8.925471	-6.181147
C	1.571616	-10.00493	-6.828898
C	-0.5472583	-10.75151	-7.110598
H	-1.203039	-11.60266	-7.44081
H	1.136899	-11.89519	-7.65351
C	-0.4201141	-8.373456	-4.56352
C	-1.212191	-7.065978	-2.425493
C	0.4115812	-8.211118	-3.541755
C	-1.704315	-8.074423	-4.426087
C	-2.111232	-7.371977	-3.344766
C	0.04161365	-7.452236	-2.501112
H	-3.103066	-6.9705	-3.232934
H	-1.571296	-6.831067	-1.424921
C	-2.6164	-8.631243	-5.230793
C	-2.27046	-9.629955	-6.057724
H	-3.553769	-8.112514	-5.307009
H	-3.050806	-10.27149	-6.422384
C	1.615071	-8.7967	-3.587239
C	4.092579	-9.633493	-3.829757
C	1.820027	-9.986852	-4.24169
C	2.57643	-8.275435	-2.798055
C	3.841324	-8.674139	-2.943604
C	3.109753	-10.42859	-4.337932
H	4.591747	-8.326568	-2.214074
H	5.091663	-10.06996	-3.920896
C	2.172358	-7.639895	-1.671949
C	0.9103783	-7.137394	-1.518453
H	2.951484	-7.011629	-1.298433
H	0.5571688	-6.797596	-0.5347859
C	1.962606	-7.960185	-5.77366
C	3.821069	-6.603892	-4.345376
C	3.270767	-8.088956	-6.027281
C	1.58875	-7.056396	-4.82548
C	2.52991	-6.390746	-4.129305
C	4.159517	-7.464009	-5.241039
H	5.190855	-7.344258	-5.574714
H	4.509521	-5.884491	-3.936645
C	0.8181521	-10.90052	-4.286703
C	-1.049862	-12.85251	-4.460424
C	-0.476952	-10.63396	-4.061427
C	1.161111	-12.14535	-4.646927
C	0.2463257	-13.09313	-4.574481
C	-1.412493	-11.58634	-4.31299
H	-0.7831818	-9.705408	-3.579568
H	0.4939899	-14.11023	-4.829597
H	-2.486891	-11.38682	-4.356575
H	-1.718339	-13.6764	-4.204146
C	3.632047	-9.106813	-6.819476
C	2.864429	-10.16306	-7.016515
H	4.676275	-9.147935	-7.143862
H	3.372763	-11.14421	-6.76272
C	3.439525	-11.62691	-4.871615
C	2.400369	-12.46566	-5.011149
H	4.481741	-11.86006	-5.169384
H	2.589495	-13.49662	-5.355613
C	2.115974	-5.421961	-3.274892
C	0.7794564	-5.374379	-2.985669
H	2.817512	-4.812013	-2.685752
C	0.3217018	-6.62929	-4.834397
C	-0.1573473	-5.999818	-3.766885
C	-1.441504	-5.523829	-3.83549
C	-2.185242	-5.926576	-4.900569
H	-1.967796	-5.262817	-2.922459
H	-3.10231	-5.367125	-5.073972
H	0.484165	-4.585361	-2.304838
C	-1.707381	-6.602077	-5.941584
C	-0.3646636	-6.773273	-5.986834
C	-2.368592	-7.256804	-6.945386
C	-1.694621	-7.600288	-8.059987
H	-3.410856	-7.578353	-6.841689
H	-2.256671	-8.108835	-8.847959
C	0.2224947	-6.756537	-7.173355
C	-0.3864684	-7.358332	-8.204866
H	1.238926	-6.355953	-7.305989
H	0.1661793	-7.660082	-9.109238
78
Simulation Step: 700 Simulation Time (ps): 0.7 PotentialEnergy: 49.43364 kcal/mol Positions: A
C	-0.06337764	-8.979512	-5.610991
C	0.7623888	-10.98437	-7.020416
C	-0.9475941	-9.556435	-6.47939
C	1.22989	-9.07918	-5.842674
C	1.651675	-10.25306	-6.339384
C	-0.4714783	-10.56594	-7.191467
H	-1.219892	-11.28725	-7.451955
H	1.158192	-11.84788	-7.583708
C	-0.4801002	-8.433185	-4.455333
C	-1.279273	-7.064057	-2.504488
C	0.2095206	-8.442842	-3.322994
C	-1.760609	-8.30172	-4.326537
C	-2.188763	-7.570997	-3.345221
C	-0.04398851	-7.513737	-2.413604
H	-3.074298	-8.038271	-2.868298
H	-1.685558	-6.447629	-1.679876
C	-2.580499	-9.074522	-5.014791
C	-2.260694	-9.545415	-6.22577
H	-3.635083	-9.15124	-4.68114
H	-2.788613	-10.47795	-6.570725
C	1.431399	-8.93326	-3.334163
C	3.936669	-9.855886	-3.42288
C	1.701888	-10.10236	-3.888533
C	2.379196	-8.366167	-2.558983
C	3.628519	-8.823245	-2.632905
C	2.972119	-10.2947	-4.23976
H	4.401544	-8.532619	-1.898204
H	4.892401	-10.40202	-3.244678
C	2.121135	-7.437284	-1.64809
C	0.9061429	-6.968711	-1.650231
H	2.877352	-6.615128	-1.642902
H	0.6502703	-6.04785	-1.100104
C	2.048006	-8.048199	-5.642092
C	3.898039	-6.435366	-4.628878
C	3.32378	-8.193927	-6.016827
C	1.680144	-6.903974	-5.03226
C	2.616795	-6.16379	-4.408122
C	4.144036	-7.220649	-5.684412
H	4.833723	-6.923573	-6.493874
H	4.675749	-5.857709	-4.107098
C	0.7466218	-11.01847	-4.231443
C	-0.9921051	-12.7937	-5.083599
C	-0.5524187	-10.68598	-4.322871
C	1.106189	-12.28322	-4.507452
C	0.1922992	-13.24488	-4.757828
C	-1.358648	-11.5363	-4.918383
H	-0.9311945	-9.773618	-3.804562
H	0.2780163	-14.235	-4.255623
H	-2.416062	-11.276	-4.876773
H	-1.756535	-13.51293	-5.413837
C	3.795245	-9.40991	-6.378235
C	2.937548	-10.40779	-6.635897
H	4.80548	-9.723556	-6.070901
H	3.205701	-11.38598	-7.045159
C	3.239053	-11.53938	-4.707895
C	2.350172	-12.51662	-4.862033
H	4.239533	-11.79244	-5.104663
H	2.561803	-13.48166	-5.313251
C	2.203294	-5.605111	-3.290466
C	0.8957735	-5.335649	-3.198633
H	2.978673	-5.125024	-2.643097
C	0.4218562	-6.451654	-5.119687
C	-0.02496488	-5.745819	-4.096311
C	-1.360139	-5.64567	-3.926805
C	-2.165516	-6.006703	-4.922873
H	-1.722377	-5.238657	-2.942383
H	-3.245179	-6.087264	-4.699859
H	0.5967865	-4.520605	-2.503978
C	-1.691052	-6.54974	-6.032504
C	-0.3843433	-6.839493	-6.138186
C	-2.550997	-7.084286	-6.937916
C	-2.010644	-7.937482	-7.819371
H	-3.666228	-6.97283	-6.89166
H	-2.500549	-8.914186	-7.956804
C	0.1500933	-7.261047	-7.299953
C	-0.6994987	-7.889647	-8.101616
H	1.104715	-6.779153	-7.697299
H	-0.3675812	-8.297255	-9.076814
78
Simulation Step: 800 Simulation Time (ps): 0.8 PotentialEnergy: 44.92554 kcal/mol Positions: A
C	-0.02731742	-9.046102	-5.63653
C	0.826363	-11.18362	-6.842241
C	-0.8667535	-9.708889	-6.433784
C	1.280066	-9.155646	-5.821185
C	1.703076	-10.31238	-6.319539
C	-0.408141	-10.78592	-7.090336
H	-0.9007428	-11.16293	-8.000242
H	1.119865	-12.25877	-6.864277
C	-0.5069203	-8.548	-4.481581
C	-1.475838	-7.328999	-2.3225
C	0.2605874	-8.326753	-3.417847
C	-1.834966	-8.518014	-4.274777
C	-2.346003	-7.895527	-3.169395
C	-0.1662736	-7.467069	-2.532588
H	-3.28446	-8.331052	-2.712415
H	-1.806076	-6.993024	-1.324822
C	-2.630465	-8.798036	-5.323949
C	-2.163348	-9.394406	-6.407944
H	-3.737098	-8.647479	-5.242933
H	-2.902922	-10.04159	-6.936738
C	1.374569	-8.989688	-3.176445
C	3.895434	-9.735847	-3.277957
C	1.64585	-10.16646	-3.816912
C	2.307468	-8.394098	-2.419331
C	3.521811	-8.883233	-2.329042
C	2.947727	-10.5215	-3.845039
H	4.239553	-8.219427	-1.843811
H	4.915421	-9.713148	-3.708254
C	1.994419	-7.315269	-1.689448
C	0.7395429	-6.863834	-1.757995
H	2.833246	-6.717994	-1.194203
H	0.4650394	-6.073501	-1.026282
C	2.142257	-8.164289	-5.600092
C	3.895945	-6.309505	-4.86301
C	3.469198	-8.390018	-5.76593
C	1.714692	-6.985991	-5.164994
C	2.608413	-6.176342	-4.574807
C	4.343907	-7.341932	-5.549336
H	5.416005	-7.61241	-5.562675
H	4.554356	-5.425294	-4.660398
C	0.6608668	-10.92842	-4.318391
C	-0.9624127	-12.49121	-5.716218
C	-0.6110432	-10.62193	-4.549467
C	0.9577754	-12.18453	-4.527401
C	-0.07654987	-12.96196	-4.837874
C	-1.307111	-11.24393	-5.50391
H	-1.140726	-10.46052	-3.622693
H	-0.5356635	-13.6644	-4.055469
H	-2.379733	-10.95975	-5.649381
H	-1.419991	-13.07089	-6.547855
C	3.882867	-9.663653	-5.958078
C	3.018119	-10.60913	-6.327608
H	4.948076	-9.918822	-5.742553
H	3.356955	-11.39445	-6.996778
C	3.194224	-11.63037	-4.525331
C	2.223474	-12.52635	-4.707377
H	4.117949	-11.68642	-5.12232
H	2.562027	-13.5895	-4.627658
C	2.217139	-5.49576	-3.5049
C	0.9282503	-5.238124	-3.380455
H	2.873785	-5.267286	-2.668551
C	0.4467869	-6.60743	-5.229312
C	0.09047535	-5.696406	-4.32385
C	-1.131362	-5.280442	-4.341506
C	-2.054396	-5.918995	-5.043626
H	-1.345853	-4.353101	-3.789995
H	-3.061665	-5.987702	-4.597232
H	0.5348667	-4.659768	-2.525069
C	-1.729167	-6.81422	-5.956114
C	-0.4342861	-7.137684	-6.123521
C	-2.646056	-7.233676	-6.785888
C	-2.25522	-8.091969	-7.744901
H	-3.604756	-6.711438	-6.917727
H	-2.654413	-7.909317	-8.774593
C	-0.04430807	-8.018611	-7.096321
C	-1.046581	-8.618641	-7.722898
H	0.9952932	-8.087986	-7.381262
H	-0.7231414	-9.104844	-8.651458
78
Simulation Step: 900 Simulation Time (ps): 0.9 PotentialEnergy: 58.64339 kcal/mol Positions: A
C	-0.02149478	-9.148126	-5.643152
C	0.8400595	-11.16268	-7.031356
C	-0.8076011	-9.657878	-6.594364
C	1.263144	-9.409138	-5.684972
C	1.701922	-10.54663	-6.191292
C	-0.3005852	-10.57941	-7.392366
H	-0.8304693	-10.96385	-8.309273
H	1.071673	-12.17411	-7.335716
C	-0.5251903	-8.425538	-4.6564
C	-1.611641	-7.46195	-2.417277
C	0.2779276	-8.139503	-3.630655
C	-1.843616	-8.262876	-4.539977
C	-2.396726	-7.94745	-3.380838
C	-0.2620977	-7.50853	-2.548447
H	-3.476113	-7.978288	-3.281369
H	-2.033036	-6.76576	-1.6887
C	-2.613496	-8.54339	-5.572822
C	-2.121164	-9.321977	-6.562601
H	-3.482643	-7.928472	-5.758605
H	-2.785948	-9.670852	-7.332188
C	1.409644	-8.816479	-3.494435
C	3.523982	-10.11316	-3.2674
C	1.34029	-10.12251	-3.823514
C	2.26717	-8.424424	-2.532192
C	3.423377	-9.052673	-2.410573
C	2.508979	-10.73153	-3.845558
H	4.257928	-8.572427	-1.847013
H	4.517667	-10.45159	-3.568913
C	1.882022	-7.558399	-1.621171
C	0.6235555	-7.078335	-1.649002
H	2.473804	-7.45751	-0.7188875
H	0.3014894	-6.303651	-0.9484822
C	2.12005	-8.446809	-5.388023
C	3.831186	-6.507889	-5.056158
C	3.450664	-8.650576	-5.504782
C	1.65332	-7.234293	-5.072264
C	2.574949	-6.361215	-4.648641
C	4.343163	-7.686625	-5.302973
H	5.390718	-7.888551	-5.05451
H	4.558458	-5.703806	-4.925833
C	0.1920387	-10.81187	-3.890253
C	-1.240111	-12.16266	-5.679006
C	-0.8229261	-10.22365	-4.511025
C	0.2336329	-12.12938	-3.89881
C	-0.8627741	-12.62655	-4.521458
C	-1.435108	-10.89249	-5.516803
H	-1.466681	-9.622649	-3.834363
H	-1.91863	-12.69291	-3.993931
H	-2.425947	-10.56491	-5.792861
H	-1.057456	-12.62032	-6.647624
C	3.85769	-9.867649	-5.83221
C	3.005727	-10.82966	-6.153035
H	4.917658	-10.1279	-5.91757
H	3.333133	-11.89901	-5.989842
C	2.601104	-12.06071	-4.057755
C	1.457835	-12.7859	-3.941761
H	3.585655	-12.52228	-4.253051
H	1.547271	-13.83247	-3.621833
C	2.205471	-5.306572	-3.899424
C	0.929319	-4.949851	-3.841352
H	2.838823	-5.092397	-3.022604
C	0.3525766	-6.86202	-5.070652
C	0.0310918	-5.773471	-4.365666
C	-1.189496	-5.263929	-4.459754
C	-2.079316	-6.008976	-5.099416
H	-1.480536	-4.428211	-3.828816
H	-3.03933	-6.187711	-4.606425
H	0.6341783	-4.325028	-2.993669
C	-1.686725	-6.843328	-6.043163
C	-0.4284097	-7.213908	-6.101436
C	-2.586174	-7.212929	-6.943068
C	-2.15812	-7.879973	-7.980867
H	-3.639271	-6.941983	-6.865928
H	-2.879934	-8.324647	-8.680775
C	-0.001845601	-7.956777	-7.141273
C	-0.8586694	-8.142029	-8.151266
H	1.028436	-8.344049	-7.13919
H	-0.4421672	-7.910064	-9.13967
78
Simulation Step: 1000 Simulation Time (ps): 1 PotentialEnergy: 61.5838 kcal/mol Positions: A
C	-0.07502986	-8.735751	-5.92123
C	0.6809875	-10.87886	-7.337813
C	-0.8876422	-9.186275	-6.90031
C	1.16109	-9.258262	-5.797082
C	1.465706	-10.45241	-6.329939
C	-0.4709362	-10.25211	-7.624299
H	-1.084106	-10.57049	-8.453794
H	0.8735694	-11.88139	-7.770189
C	-0.597625	-8.036777	-4.905461
C	-1.657396	-7.237213	-2.619377
C	0.1466125	-8.035148	-3.815377
C	-1.917789	-7.82007	-4.815515
C	-2.472481	-7.52769	-3.651755
C	-0.3422183	-7.531245	-2.704309
H	-3.539687	-7.781591	-3.50304
H	-2.165246	-6.896055	-1.688128
C	-2.711031	-8.379521	-5.731734
C	-2.1719	-8.785318	-6.890392
H	-3.812344	-8.349533	-5.592038
H	-2.802551	-9.064379	-7.759493
C	0.9952974	-9.041288	-3.658188
C	2.649897	-10.94793	-3.088813
C	0.5300125	-10.29288	-3.700343
C	1.94386	-8.853367	-2.758246
C	2.937108	-9.713059	-2.776464
C	1.389605	-11.27572	-3.396524
H	3.983241	-9.365276	-2.800239
H	3.399928	-11.74684	-2.922264
C	1.776777	-7.919024	-1.783606
C	0.4776917	-7.576296	-1.615991
H	2.532574	-7.440119	-1.178953
H	0.220491	-6.886596	-0.7916257
C	2.156089	-8.405748	-5.518913
C	4.038101	-6.641298	-4.914526
C	3.39903	-8.791243	-5.37711
C	1.847651	-7.159955	-5.183606
C	2.7538	-6.31465	-4.696688
C	4.348231	-7.869408	-5.357458
H	5.378761	-8.209534	-5.598789
H	4.752589	-5.838187	-5.108904
C	-0.7887553	-10.45078	-3.691041
C	-2.143579	-11.62828	-5.481598
C	-1.552522	-9.785695	-4.573721
C	-1.282506	-11.67241	-3.513467
C	-2.395426	-11.83039	-4.225206
C	-1.876273	-10.36997	-5.705113
H	-2.433966	-9.266976	-4.132303
H	-3.328701	-11.15672	-3.984515
H	-2.761855	-9.930535	-6.200207
H	-1.888465	-12.46374	-6.158175
C	3.682181	-10.04475	-5.689942
C	2.749328	-10.85084	-6.204033
H	4.702111	-10.39553	-5.488424
H	3.049532	-11.86652	-6.494841
C	0.8507997	-12.47683	-3.15309
C	-0.4714726	-12.67197	-3.190686
H	1.51126	-13.32136	-2.86794
H	-0.9244586	-13.61853	-2.874611
C	2.346549	-5.22286	-4.033657
C	1.030075	-4.99863	-3.940336
H	3.021821	-4.33985	-4.004983
C	0.603817	-6.699841	-5.357148
C	0.150795	-5.857324	-4.438834
C	-1.144499	-5.764555	-4.194041
C	-1.952399	-6.251836	-5.126763
H	-1.525368	-5.587702	-3.154622
H	-3.040308	-6.205797	-4.939285
H	0.6203493	-4.134052	-3.368821
C	-1.514944	-6.887249	-6.234238
C	-0.1736163	-6.974515	-6.397137
C	-2.240104	-6.97341	-7.359207
C	-1.703242	-7.493247	-8.475133
H	-3.323914	-6.704495	-7.328477
H	-2.397631	-8.083916	-9.070665
C	0.3622833	-7.350072	-7.53522
C	-0.4216529	-7.816708	-8.487947
H	1.458942	-7.151885	-7.729736
H	-0.1239152	-8.673812	-9.115311
78
Simulation Step: 1100 Simulation Time (ps): 1.1 PotentialEnergy: 37.2506 kcal/mol Positions: A
C	-0.07374841	-8.439085	-6.215532
C	0.3525099	-10.69236	-7.510705
C	-0.9184749	-8.835871	-7.16364
C	1.134722	-8.936016	-6.213921
C	1.359317	-10.10588	-6.822251
C	-0.7762808	-10.02252	-7.775876
H	-1.624779	-10.52773	-8.285304
H	0.2913291	-11.80053	-7.465638
C	-0.5660661	-7.914558	-5.117393
C	-1.499906	-6.98134	-2.842594
C	-0.06678659	-8.242029	-3.9279
C	-1.690164	-7.288241	-5.105858
C	-2.232362	-7.056099	-3.933504
C	-0.2514147	-7.407135	-2.925993
H	-3.267583	-6.656616	-3.87859
H	-1.972419	-6.981662	-1.859028
C	-2.463961	-7.43856	-6.158837
C	-2.12206	-8.270313	-7.122734
H	-3.276244	-6.712203	-6.336827
H	-2.764685	-8.253901	-8.037135
C	0.4565686	-9.431842	-3.656809
C	1.338052	-11.71112	-2.678415
C	-0.3591518	-10.48865	-3.589433
C	1.420652	-9.410868	-2.711791
C	1.977067	-10.57524	-2.394089
C	0.02518326	-11.59381	-2.917123
H	2.865464	-10.58972	-1.754006
H	1.829147	-12.66292	-2.429232
C	1.479003	-8.413508	-1.81576
C	0.5763136	-7.422893	-1.884425
H	2.479596	-8.205259	-1.318323
H	0.7420624	-6.534799	-1.253142
C	2.169072	-8.21726	-5.781635
C	4.091592	-6.910498	-4.498763
C	3.301643	-8.864841	-5.479434
C	2.003797	-6.936197	-5.451767
C	2.933783	-6.270495	-4.767023
C	4.248718	-8.201139	-4.828229
H	5.219027	-8.69083	-4.656316
H	4.955691	-6.323953	-4.087162
C	-1.609459	-10.37798	-4.002844
C	-3.731718	-11.14226	-5.363057
C	-1.880337	-9.78026	-5.160389
C	-2.607374	-11.05598	-3.432112
C	-3.798709	-11.0162	-4.032518
C	-2.689191	-10.52284	-5.945597
H	-2.25042	-8.772843	-4.974621
H	-4.383739	-10.1593	-3.727157
H	-2.411336	-10.7315	-6.985991
H	-4.198094	-11.98694	-5.903413
C	3.52299	-10.07438	-5.969112
C	2.528786	-10.72448	-6.591927
H	4.332596	-10.63737	-5.472079
H	2.653493	-11.78206	-6.834698
C	-0.9656796	-12.36528	-2.442185
C	-2.263767	-12.10389	-2.662244
H	-0.713147	-13.40099	-2.183355
H	-2.998464	-12.43413	-1.888521
C	2.483341	-5.34831	-3.90553
C	1.194051	-5.202415	-3.613076
H	3.214707	-4.797574	-3.307342
C	0.7610384	-6.447255	-5.52843
C	0.3272884	-5.672776	-4.52733
C	-0.9957069	-5.389534	-4.488906
C	-1.705159	-5.502098	-5.625737
H	-1.526832	-5.303144	-3.533374
H	-2.532313	-4.790749	-5.740891
H	0.877146	-4.479139	-2.851304
C	-1.16804	-6.023524	-6.737738
C	0.1103628	-6.401237	-6.704689
C	-1.97646	-6.345846	-7.75497
C	-1.465074	-6.964099	-8.807601
H	-2.966768	-5.888072	-7.816851
H	-2.099257	-7.262528	-9.668386
C	0.5215651	-7.255706	-7.650545
C	-0.2209519	-7.45339	-8.739381
H	1.450795	-7.805643	-7.533047
H	0.2630156	-7.882569	-9.627638
78
Simulation Step: 1200 Simulation Time (ps): 1.2 PotentialEnergy: 30.85644 kcal/mol Positions: A
C	-0.1643999	-8.48713	-6.289846
C	0.2785745	-10.44908	-7.851182
C	-1.008301	-8.668009	-7.291825
C	1.108627	-8.861316	-6.432648
C	1.34304	-9.840496	-7.287298
C	-0.8925554	-9.799108	-7.970289
H	-1.827557	-10.3547	-8.216827
H	0.3433425	-11.46993	-8.22241
C	-0.7131904	-8.116124	-5.134988
C	-1.017443	-6.409193	-3.130915
C	-0.227442	-8.41731	-3.926694
C	-1.626854	-7.139875	-5.201195
C	-1.816537	-6.310696	-4.198205
C	-0.1940359	-7.453746	-3.011019
H	-2.30813	-5.371064	-4.444534
H	-1.222919	-5.762985	-2.264459
C	-2.443143	-7.172646	-6.236942
C	-2.108557	-7.92177	-7.300901
H	-3.131213	-6.350169	-6.43132
H	-2.695269	-7.841413	-8.205306
C	-0.09842794	-9.665801	-3.484266
C	-0.2944289	-11.89067	-2.038583
C	-1.087939	-10.55297	-3.725855
C	0.7678877	-9.896702	-2.486389
C	0.7513279	-11.09204	-1.860343
C	-1.293046	-11.49381	-2.808372
H	1.671668	-11.45532	-1.360266
H	-0.3519888	-12.918	-1.65883
C	1.195272	-8.840763	-1.777692