78
Simulation Step: 100 Simulation Time (ps): 0.1 PotentialEnergy: 103.602 kcal/mol Positions: A
C	-6.849952	0.3654355	3.509029
C	-6.897771	2.934666	4.037619
C	-6.270521	0.8585756	4.604595
C	-7.329337	1.177212	2.5635
C	-7.585298	2.405697	3.000906
C	-6.338486	2.119036	4.924369
H	-5.775762	2.45044	5.844204
H	-7.173845	3.959316	4.342599
C	-7.048932	-0.9381884	3.446593
C	-6.884869	-3.495348	3.03386
C	-8.150075	-1.527366	2.958274
C	-6.181551	-1.657403	4.163609
C	-5.981733	-2.921714	3.848827
C	-7.942639	-2.823711	2.626056
H	-5.068533	-3.417124	4.213871
H	-7.181942	-4.534874	3.332786
C	-5.37702	-1.152799	5.05446
C	-5.38865	0.1711912	5.310472
H	-4.4043	-1.728209	5.091397
H	-5.018639	0.6147837	6.242193
C	-9.365452	-0.9695852	2.770803
C	-11.87562	-0.2458738	2.269776
C	-9.957015	-0.07471691	3.642296
C	-10.15642	-1.673131	1.916565
C	-11.29965	-1.182999	1.45815
C	-11.14033	0.3846282	3.208508
H	-11.44889	-1.103456	0.3306216
H	-12.93643	-0.5403354	2.483671
C	-9.745855	-2.747191	1.258402
C	-8.545916	-3.272384	1.55244
H	-10.55766	-3.516139	1.15727
H	-7.975071	-3.731865	0.7391067
C	-7.427804	0.896934	1.248141
C	-8.186548	0.3729549	-1.208849
C	-8.368188	1.575312	0.6833368
C	-6.833979	-0.1547547	0.6290321
C	-7.387769	-0.487603	-0.5696709
C	-8.873631	1.208383	-0.4786512
H	-9.766361	1.700566	-0.8871541
H	-8.119251	0.4598323	-2.354393
C	-9.47145	0.379493	4.828093
C	-9.297697	0.6530902	7.334025
C	-8.772532	-0.5946873	5.401962
C	-10.12719	1.371209	5.548141
C	-9.951302	1.657234	6.796627
C	-8.744287	-0.4578609	6.736839
H	-8.243773	-1.437259	4.813014
H	-10.4427	2.526598	7.292791
H	-8.254756	-1.223576	7.384876
H	-9.516419	0.5360432	8.374401
C	-8.917143	2.66453	1.215424
C	-8.659122	2.973066	2.50756
H	-8.850125	3.539483	0.5298062
H	-9.350488	3.547128	3.169618
C	-11.49257	1.553692	3.659721
C	-11.0001	2.010754	4.80467
H	-12.32212	2.070075	3.127094
H	-10.87063	3.131417	4.832402
C	-7.124352	-1.675739	-1.068311
C	-6.080513	-2.306188	-0.556371
H	-7.998075	-2.263028	-1.115572
C	-5.597584	-0.5564553	0.9106433
C	-5.33162	-1.794469	0.4939111
C	-4.215547	-2.300925	0.9548715
C	-3.300809	-1.550838	1.54656
H	-4.014809	-3.398404	0.8242572
H	-2.309724	-1.930734	1.465659
H	-5.49659	-2.703932	-1.44093
C	-3.38984	-0.2718337	1.663408
C	-4.646192	0.2065789	1.456593
C	-2.362241	0.4073882	2.084792
C	-2.78863	1.632664	2.332059
H	-1.407017	0.2834076	1.518587
H	-2.164262	2.139342	3.102238
C	-5.073362	1.40499	1.810998
C	-4.057016	2.205756	2.185567
H	-6.126777	1.754356	1.683011
H	-4.311489	3.289791	2.249739
78
Simulation Step: 200 Simulation Time (ps): 0.2 PotentialEnergy: 77.12407 kcal/mol Positions: A
C	-7.104269	0.3443277	3.526473
C	-7.125731	2.870991	4.080081
C	-6.092982	0.8725123	4.245719
C	-7.646689	1.117361	2.637331
C	-7.682459	2.42189	2.938427
C	-6.123592	2.155051	4.587943
H	-5.562994	2.56759	5.447012
H	-7.170104	3.939623	4.402631
C	-7.121849	-0.9741938	3.358088
C	-6.921394	-3.581744	2.928361
C	-8.097208	-1.606859	2.789953
C	-6.15283	-1.656117	3.898659
C	-6.213152	-2.980797	3.864922
C	-7.866036	-2.836988	2.367117
H	-5.995221	-3.558535	4.802092
H	-6.92197	-4.680025	2.986071
C	-5.666804	-1.19099	5.031683
C	-5.343863	0.08505379	4.994441
H	-6.148965	-1.528546	5.988328
H	-4.88887	0.4298722	5.961452
C	-9.31822	-1.053174	2.663112
C	-11.79079	-0.1774653	2.287666
C	-9.827012	-0.0959319	3.47216
C	-9.961044	-1.439721	1.58136
C	-11.21668	-1.033031	1.402506
C	-10.98929	0.5442015	3.094966
H	-11.94575	-1.699281	0.9422397
H	-12.90363	-0.07560085	2.327832
C	-9.493962	-2.553478	0.9455891
C	-8.734752	-3.43342	1.60318
H	-9.980424	-2.931342	0.01813134
H	-8.799747	-4.538514	1.402282
C	-7.808014	0.7075956	1.381011
C	-7.918865	0.3712595	-1.153273
C	-8.511104	1.604235	0.6235772
C	-6.89584	-0.09020896	0.799099
C	-7.333093	-0.5169779	-0.3896239
C	-8.336824	1.553977	-0.6790754
H	-8.706042	2.321275	-1.383124
H	-8.647046	-0.1285111	-1.846713
C	-9.164008	0.142703	4.602545
C	-9.194849	0.1935017	7.180558
C	-8.575237	-0.8826987	5.25565
C	-9.582656	1.284921	5.219234
C	-9.517479	1.322435	6.546497
C	-8.380247	-0.6839086	6.558371
H	-8.961895	-1.868327	5.012169
H	-9.921883	2.118292	7.215014
H	-7.889434	-1.424731	7.234482
H	-9.206914	0.1837677	8.30777
C	-9.118299	2.613719	1.24593
C	-8.606515	3.120098	2.348136
H	-10.11891	3.003164	0.9673889
H	-8.81563	4.202022	2.550667
C	-11.34563	1.724785	3.626839
C	-10.50063	2.109928	4.564195
H	-12.2714	2.30913	3.499999
H	-10.62185	3.081942	5.073134
C	-6.921937	-1.676215	-0.9725829
C	-6.014781	-2.404688	-0.3308687
H	-6.966505	-1.749465	-2.100849
C	-5.769183	-0.6368698	1.283045
C	-5.446855	-1.891	0.8078986
C	-4.270359	-2.399588	1.097225
C	-3.38487	-1.570515	1.545812
H	-4.0195	-3.456046	1.103297
H	-2.299009	-1.828519	1.450713
H	-5.776405	-3.473148	-0.5970885
C	-3.626454	-0.2262681	1.604541
C	-4.853149	0.2695637	1.642031
C	-2.655931	0.6503178	2.008255
C	-2.91856	1.925675	2.340265
H	-1.643531	0.209554	2.078033
H	-2.071184	2.602695	2.501572
C	-5.198365	1.543953	2.007816
C	-4.218795	2.282626	2.59521
H	-6.121455	2.009862	1.61369
H	-4.456697	3.075615	3.33964
78
Simulation Step: 300 Simulation Time (ps): 0.3 PotentialEnergy: 56.45205 kcal/mol Positions: A
C	-6.935762	0.260761	3.349559
C	-7.198186	2.827585	4.059399
C	-6.118697	0.7639681	4.254567
C	-7.639017	1.132881	2.590064
C	-7.961827	2.344988	3.065942
C	-6.120801	2.106596	4.390975
H	-5.483142	2.483329	5.194583
H	-7.248687	3.877088	4.332998
C	-7.158913	-1.057836	3.428353
C	-6.935626	-3.588158	2.88119
C	-7.962603	-1.585197	2.48999
C	-6.577945	-1.852219	4.358063
C	-6.21377	-3.043415	3.896771
C	-7.83776	-2.862625	2.202092
H	-5.285726	-3.524193	4.242957
H	-6.973431	-4.675825	2.795573
C	-5.795811	-1.350038	5.310478
C	-5.593914	-0.02138956	5.197093
H	-5.180745	-1.953635	5.958744
H	-5.180912	0.5068467	6.052425
C	-9.16173	-1.012952	2.336147
C	-11.40532	0.2366602	1.886383
C	-9.59769	-0.134344	3.276592
C	-10.03266	-1.574626	1.516286
C	-11.23268	-0.9991116	1.378169
C	-10.62331	0.5922471	2.89498
H	-12.06307	-1.517324	0.8667766
H	-12.40364	0.6542161	1.844597
C	-9.63166	-2.604601	0.7811285
C	-8.498854	-3.25573	1.120447
H	-10.38731	-3.235657	0.3238145
H	-7.924209	-3.832459	0.403869
C	-7.762646	0.9037597	1.240578
C	-7.989647	0.3598056	-1.377584
C	-8.580108	1.605238	0.5146651
C	-6.907855	0.02325934	0.6280699
C	-7.198192	-0.4873458	-0.6196367
C	-8.61632	1.409675	-0.8115565
H	-9.533586	1.775757	-1.282788
H	-7.605613	0.5507071	-2.357576
C	-9.156475	-0.05233888	4.51783
C	-8.681616	0.03149253	7.10976
C	-8.516196	-1.094794	5.032356
C	-9.498579	0.9906436	5.267832
C	-9.247409	1.089407	6.575706
C	-8.493273	-1.059913	6.352842
H	-8.524693	-2.05274	4.521429
H	-9.360295	2.030239	7.080914
H	-8.177288	-1.981623	6.820106
H	-7.941293	0.1138617	7.926667
C	-9.098505	2.726745	1.045488
C	-8.813937	3.047223	2.341542
H	-10.08091	2.996951	0.6699086
H	-9.174403	3.994408	2.728374
C	-10.70354	1.768083	3.441337
C	-10.19067	1.968577	4.636756
H	-11.33031	2.520041	2.953351
H	-9.984246	2.991732	4.887243
C	-6.888611	-1.772611	-0.9022863
C	-6.294201	-2.472675	0.0886137
H	-6.705266	-2.082756	-1.9856
C	-6.020027	-0.5221947	1.438043
C	-5.695541	-1.786365	1.113098
C	-4.483689	-2.151059	1.424455
C	-3.525718	-1.24761	1.677939
H	-4.215616	-3.186865	1.216755
H	-2.481607	-1.519748	1.481427
H	-6.198944	-3.55749	0.003538906
C	-3.858335	-0.01651414	1.932948
C	-5.149353	0.2678802	2.044178
C	-2.817504	0.7647342	2.174973
C	-3.123477	2.015688	2.460909
H	-1.817512	0.4356048	1.855871
H	-2.357884	2.70014	2.834678
C	-5.454231	1.536089	2.287501
C	-4.425284	2.385627	2.556726
H	-6.44198	1.966654	2.039542
H	-4.715795	3.44884	2.558561
78
Simulation Step: 400 Simulation Time (ps): 0.4 PotentialEnergy: 50.42483 kcal/mol Positions: A
C	-7.175539	0.2524222	3.515172
C	-7.452292	2.847895	4.130303
C	-6.516404	0.7951749	4.583306
C	-7.715232	1.103443	2.67269
C	-8.184392	2.260881	3.158183
C	-6.557725	2.122715	4.781287
H	-5.867372	2.641366	5.487146
H	-7.76679	3.873387	4.405135
C	-6.970909	-1.010667	3.10211
C	-6.845741	-3.594195	2.581273
C	-7.944354	-1.58813	2.338569
C	-6.246986	-1.7729	3.939472
C	-6.232266	-3.09619	3.694575
C	-7.797872	-2.892276	1.945704
H	-5.851787	-3.782357	4.457668
H	-6.280818	-4.327721	1.958116
C	-5.886764	-1.292227	5.153494
C	-5.75732	0.0363548	5.329895
H	-5.359452	-1.968932	5.856327
H	-5.073481	0.4676126	6.077834
C	-9.116598	-1.035861	2.223301
C	-10.99509	0.523406	1.490146
C	-9.526937	-0.1245218	3.117833
C	-10.02219	-1.624796	1.462863
C	-10.88103	-0.7137081	0.9838504
C	-10.52348	0.7245013	2.716798
H	-11.11369	-0.7667136	-0.1027038
H	-11.72759	1.258693	1.079019
C	-9.671953	-2.713739	0.7528514
C	-8.654304	-3.499735	1.128459
H	-10.45573	-3.094332	0.05854713
H	-8.258675	-4.122136	0.3134027
C	-7.866433	0.8483902	1.394434
C	-8.274713	0.1760833	-1.176996
C	-8.745782	1.517975	0.6211674
C	-7.073218	-0.03183241	0.814101
C	-7.312694	-0.4190901	-0.4546926
C	-8.939127	1.244052	-0.6908471
H	-9.836488	1.608552	-1.236138
H	-8.209911	0.1488306	-2.290237
C	-9.258997	-0.2348602	4.413706
C	-8.196988	-0.09125731	6.818542
C	-8.783119	-1.360496	4.992604
C	-9.402092	0.9030288	5.118527
C	-8.894087	0.9550481	6.340959
C	-8.102468	-1.232162	6.14852
H	-9.056001	-2.395725	4.592843
H	-9.198695	1.780562	7.032025
H	-7.336309	-2.014335	6.334314
H	-8.081092	-0.141288	7.889715
C	-9.016494	2.754884	0.9860092
C	-8.878742	3.001974	2.303863
H	-9.392885	3.519683	0.266955
H	-9.665838	3.60517	2.803583
C	-10.63618	1.857561	3.390651
C	-10.18014	1.890957	4.656542
H	-11.45956	2.515211	3.060134
H	-10.50062	2.718023	5.341061
C	-7.013231	-1.751969	-0.6805546
C	-6.280395	-2.393527	0.2071975
H	-7.636151	-2.346422	-1.334494
C	-5.979588	-0.4722095	1.422271
C	-5.48069	-1.62313	0.94369
C	-4.391451	-2.180779	1.439984
C	-3.645637	-1.428482	2.21962
H	-4.086561	-3.226886	1.139112
H	-3.333125	-1.762356	3.201248
H	-6.615372	-3.323084	0.6866261
C	-3.909531	-0.09821676	2.16084
C	-5.174377	0.3238197	2.146668
C	-2.971553	0.7773325	2.472626
C	-3.310954	2.004506	2.934884
H	-1.945045	0.3578197	2.490502
H	-2.520701	2.770524	2.826986
C	-5.495576	1.61038	2.464351
C	-4.573754	2.438015	2.904907
H	-6.467443	2.025706	2.083276
H	-4.747015	3.527272	2.839556
78
Simulation Step: 500 Simulation Time (ps): 0.5 PotentialEnergy: 46.99719 kcal/mol Positions: A
C	-7.18195	0.2306567	3.634165
C	-7.913322	2.663985	4.496472
C	-6.821725	0.6276852	4.842259
C	-7.800707	1.048354	2.825399
C	-8.334339	2.172414	3.300766
C	-7.214961	1.835636	5.284461
H	-6.680217	2.271803	6.134064
H	-8.301121	3.616896	4.902131
C	-6.994023	-1.027567	3.189803
C	-6.695204	-3.429115	2.388217
C	-7.912467	-1.57133	2.384489
C	-6.066682	-1.759773	3.744621
C	-6.083457	-3.065107	3.507824
C	-7.692363	-2.734605	1.855883
H	-5.377883	-3.74383	4.061071
H	-6.343432	-4.351096	1.901529
C	-5.59142	-1.327615	4.884879
C	-6.008546	-0.2006891	5.464604
H	-4.564834	-1.687628	5.186864
H	-5.48139	0.1576201	6.378617
C	-9.032725	-0.9053784	2.054192
C	-10.73968	0.744018	1.253933
C	-9.548943	-0.1471435	2.990901
C	-9.765366	-1.225286	0.9776424
C	-10.73108	-0.393391	0.5835521
C	-10.4347	0.6797062	2.560838
H	-11.01219	-0.375156	-0.4718276
H	-11.48055	1.509584	0.9732569
C	-9.541632	-2.489931	0.5481403
C	-8.638347	-3.274655	1.094093
H	-10.06943	-2.841623	-0.3761685
H	-8.902609	-4.301801	1.439447
C	-7.721148	0.9548838	1.46684
C	-8.713011	-0.2128991	-0.7572644
C	-8.693281	1.477484	0.7329495
C	-7.061489	-0.01307844	0.80344
C	-7.732711	-0.7926654	-0.09036455
C	-8.831254	1.075467	-0.5421858
H	-9.126252	1.776242	-1.342726
H	-9.282132	-0.7498531	-1.573604
C	-9.159885	-0.2257508	4.266123
C	-7.94029	0.06050466	6.578448
C	-8.317655	-1.166572	4.676268
C	-9.390587	0.8418158	5.026848
C	-8.680902	1.063721	6.137451
C	-7.981112	-1.145914	5.944674
H	-8.244003	-2.083853	4.0451
H	-8.975373	1.893478	6.819473
H	-7.433585	-1.984525	6.421832
H	-7.606997	0.01164375	7.645488
C	-9.183361	2.645941	1.189246
C	-8.731863	3.053263	2.353133
H	-10.15331	3.042829	0.8125392
H	-8.59742	4.146877	2.511637
C	-10.73446	1.704505	3.354025
C	-10.16159	1.803907	4.532262
H	-11.65057	2.287157	3.164816
H	-9.981894	2.803939	4.966312
C	-7.173796	-1.874317	-0.6323343
C	-6.041367	-2.307554	-0.09368505
H	-7.898808	-2.649651	-0.9109226
C	-5.998359	-0.471956	1.357662
C	-5.602592	-1.696401	1.010301
C	-4.740254	-2.259239	1.843063
C	-3.900209	-1.469309	2.561812
H	-4.41698	-3.286071	1.615303
H	-2.865422	-1.885392	2.630195
H	-5.347872	-2.927798	-0.7155641
C	-4.108681	-0.1437823	2.627511
C	-5.303579	0.2661277	2.226547
C	-3.181937	0.6702825	3.129607
C	-3.534309	1.918819	3.417209
H	-2.135877	0.3389831	3.254259
H	-2.797472	2.671355	3.776169
C	-5.550243	1.588254	2.302014
C	-4.789819	2.32373	3.150183
H	-6.360528	2.068077	1.758119
H	-5.268745	3.084182	3.796058
78
Simulation Step: 600 Simulation Time (ps): 0.6 PotentialEnergy: 46.75893 kcal/mol Positions: A
C	-7.063472	0.2568075	3.605196
C	-8.04283	2.464295	4.735874
C	-6.641719	0.6053309	4.825008
C	-7.468819	1.255578	2.80845
C	-8.142768	2.299511	3.398416
C	-7.423959	1.514339	5.417437
H	-7.166518	1.828057	6.429921
H	-8.536463	3.299721	5.240911
C	-7.04122	-1.072396	3.277156
C	-6.787695	-3.44256	2.320339
C	-7.935231	-1.540601	2.388801
C	-6.013734	-1.785066	3.76116
C	-5.898048	-3.001296	3.216429
C	-7.732058	-2.710719	1.744918
H	-5.14093	-3.708012	3.552823
H	-6.834504	-4.50984	2.130234
C	-5.564003	-1.426397	5.018845
C	-5.838964	-0.220275	5.517043
H	-5.25754	-2.209826	5.695093
H	-5.528354	0.03737969	6.528394
C	-8.880347	-0.7662017	1.888395
C	-11.02623	0.5136759	1.278728
C	-9.3879	0.09399302	2.76713
C	-9.556013	-1.1589	0.7821816
C	-10.71309	-0.559722	0.533822
C	-10.34008	0.9023472	2.359248
H	-11.20543	-0.785691	-0.424524
H	-11.96116	1.040169	1.096537
C	-9.12819	-2.206836	0.06938171
C	-8.158258	-3.009232	0.5027533
H	-9.831669	-2.659228	-0.6204745
H	-8.135767	-4.039998	0.1373385
C	-7.7653	0.9745805	1.553
C	-8.759516	-0.1160175	-0.6380465
C	-8.896251	1.415685	1.032457
C	-7.28265	-0.1859527	1.069315
C	-7.80449	-0.7814236	0.001778153
C	-9.499184	0.7628089	0.030788
H	-9.995834	1.476288	-0.6335765
H	-9.09129	-0.4158338	-1.618796
C	-9.013702	0.00849958	4.06176
C	-8.007278	0.1325241	6.511615
C	-8.33051	-1.034082	4.553731
C	-9.484631	0.9352075	4.896961
C	-9.029136	0.9372766	6.16439
C	-7.690845	-0.9133134	5.755441
H	-8.454401	-1.97959	4.071632
H	-9.205607	1.826957	6.755936
H	-7.343224	-1.858792	6.188136
H	-7.340752	0.5623313	7.274729
C	-9.305034	2.61678	1.415606
C	-8.964666	3.0353	2.637973
H	-9.567634	3.349004	0.6596389
H	-9.68834	3.686819	3.104565
C	-10.73293	1.875695	3.161417
C	-10.28503	1.862764	4.402483
H	-11.39076	2.675313	2.79062
H	-10.56001	2.714196	4.989155
C	-7.150135	-1.818674	-0.545438
C	-6.335863	-2.502811	0.231084
H	-7.48279	-2.253146	-1.529125
C	-6.175733	-0.6763622	1.575327
C	-5.72012	-1.894982	1.256091
C	-4.480774	-2.208325	1.59937
C	-3.962617	-1.619202	2.665156
H	-3.916579	-2.908699	1.003058
H	-3.452593	-2.254676	3.410545
H	-5.938461	-3.46048	-0.1065724
C	-4.335853	-0.3805575	3.020945
C	-5.424299	0.124592	2.385767
C	-3.736678	0.4380861	3.959187
C	-4.043322	1.746886	4.016061
H	-3.175529	-0.01016488	4.797537
H	-3.962498	2.18446	5.003889
C	-5.580125	1.459877	2.393709
C	-4.802962	2.284832	3.083322
H	-6.378516	1.966129	1.79211
H	-5.201297	3.272574	3.362021
78
Simulation Step: 700 Simulation Time (ps): 0.7 PotentialEnergy: 44.24179 kcal/mol Positions: A
C	-6.912854	0.1845219	3.537337
C	-7.598127	2.53758	4.50567
C	-6.435412	0.5391906	4.719996
C	-7.677516	1.027748	2.891924
C	-8.331415	1.936331	3.578666
C	-6.695427	1.795734	5.164606
H	-5.863213	2.305294	5.702374
H	-7.889307	3.553468	4.858
C	-6.998426	-1.094214	3.247036
C	-6.586187	-3.467171	2.189228
C	-7.746953	-1.459835	2.228752
C	-6.035133	-1.858411	3.732406
C	-5.911438	-3.113572	3.25755
C	-7.376521	-2.584241	1.595197
H	-5.061853	-3.704119	3.624927
H	-6.152259	-4.290693	1.576072
C	-5.43314	-1.528957	4.874722
C	-5.818166	-0.3734455	5.454837
H	-4.557856	-2.091177	5.241914
H	-5.274117	-0.03927802	6.354822
C	-8.873495	-0.7996424	1.924496
C	-11.23207	0.2873997	1.321197
C	-9.414476	0.1364261	2.744937
C	-9.612817	-1.276275	0.9190907
C	-10.86345	-0.8449014	0.783192
C	-10.42229	0.8277532	2.249196
H	-11.64026	-1.631368	0.7017019
H	-12.30783	0.5538365	1.426216
C	-9.093095	-2.270269	0.2082039
C	-8.172132	-3.093107	0.6656942
H	-9.121626	-2.093954	-0.8795141
H	-8.490654	-4.12556	0.8371563
C	-7.783172	0.9677997	1.581663
C	-8.810731	-0.04275222	-0.7101521
C	-8.894789	1.415277	1.033606
C	-7.169059	-0.01674736	0.9242755
C	-7.633021	-0.4305214	-0.270816
C	-9.24474	1.079961	-0.1962815
H	-9.74294	1.796159	-0.8662448
H	-8.916616	-0.1617375	-1.800735
C	-9.080698	0.1414835	4.075074
C	-8.503138	0.183904	6.745339
C	-8.500692	-0.9305722	4.705268
C	-9.601711	1.074945	4.875539
C	-9.435841	1.021515	6.243783
C	-7.901243	-0.6612999	5.898529
H	-8.323945	-1.86797	4.107663
H	-9.753433	1.936976	6.809876
H	-6.941475	-1.127192	6.189516
H	-8.439225	0.01653536	7.825936
C	-9.523389	2.433038	1.63406
C	-9.234218	2.663338	2.915198
H	-10.54298	2.651069	1.248878
H	-9.74532	3.454005	3.50206
C	-10.93891	1.743294	3.061307
C	-10.51674	1.871624	4.346643
H	-11.49501	2.566808	2.586054
H	-11.3139	2.239614	5.043037
C	-7.100064	-1.593347	-0.6847731
C	-6.050336	-2.161065	-0.1106485
H	-7.60944	-2.050767	-1.534384
C	-5.974173	-0.3707737	1.332711
C	-5.530102	-1.556858	0.9702009
C	-4.731757	-2.247019	1.83214
C	-4.231207	-1.60355	2.902325
H	-4.525875	-3.349077	1.692337
H	-3.159393	-1.649687	3.015571
H	-5.971137	-3.25233	-0.2082571
C	-4.808908	-0.5348808	3.344365
C	-5.458736	0.1882711	2.450011
C	-4.405196	-0.04075468	4.516361
C	-4.458609	1.26918	4.703753
H	-4.004202	-0.6621521	5.339966
H	-3.67635	1.723813	5.326202
C	-5.395845	1.526686	2.604161
C	-4.83708	2.032551	3.703537
H	-6.109943	2.171849	2.075252
H	-4.764524	3.116142	3.873343
78
Simulation Step: 800 Simulation Time (ps): 0.8 PotentialEnergy: 42.9044 kcal/mol Positions: A
C	-6.902635	0.1908246	3.527572
C	-7.7328	2.337709	4.763513
C	-6.418192	0.470846	4.718088
C	-7.6361	1.068737	2.868352
C	-8.220894	2.047731	3.561292
C	-6.720786	1.628785	5.258816
H	-6.183006	1.962054	6.147897
H	-8.356382	2.911864	5.465655
C	-6.985463	-1.12979	3.207296
C	-6.531925	-3.581071	2.328539
C	-7.940257	-1.713291	2.462184
C	-6.169111	-1.943187	3.857121
C	-5.879491	-3.135757	3.384485
C	-7.648879	-2.944756	1.954871
H	-5.421628	-3.853595	4.10484
H	-6.022585	-4.24362	1.609934
C	-5.996683	-1.725123	5.135142
C	-5.820047	-0.4524096	5.443575
H	-5.570099	-2.514952	5.818639
H	-5.281878	-0.19207	6.383305
C	-9.164981	-1.18293	2.178151
C	-11.27997	0.1403708	1.286553
C	-9.702663	-0.214393	2.934684
C	-9.859882	-1.707122	1.106766
C	-10.9267	-1.005554	0.7153278
C	-10.8004	0.3718455	2.517807
H	-11.60414	-1.381893	-0.04865064
H	-11.98008	0.8284041	0.7998291
C	-9.223832	-2.627968	0.3215976
C	-8.162884	-3.274771	0.7765501
H	-9.490846	-2.697669	-0.7516214
H	-7.522502	-3.936809	0.1303279
C	-7.789953	1.11462	1.562856
C	-8.564754	0.3104529	-0.8755435
C	-8.909129	1.637415	1.011425
C	-6.974387	0.3563901	0.8371773
C	-7.412447	-0.1203443	-0.3422526
C	-9.242826	1.289372	-0.2579195
H	-9.90817	1.94954	-0.8499896
H	-8.570896	0.2929351	-1.993232
C	-9.206276	0.05146451	4.179383
C	-8.712426	0.2943693	6.785587
C	-8.272787	-0.746466	4.762696
C	-9.809285	1.016334	4.925174
C	-9.451358	1.247947	6.22318
C	-8.211649	-0.7282531	6.077321
H	-8.092886	-1.724805	4.260924
H	-9.208279	2.312702	6.419772
H	-7.786748	-1.611421	6.595473
H	-8.853551	0.1715406	7.883878
C	-9.60976	2.478213	1.802608
C	-9.189561	2.797071	3.021865
H	-10.62513	2.780389	1.476022
H	-9.571169	3.702745	3.538729
C	-11.19509	1.491659	3.142949
C	-10.61584	1.872785	4.284569
H	-11.77396	2.212066	2.524694
H	-11.10919	2.680875	4.882624
C	-6.778138	-1.149771	-0.9252403
C	-5.579417	-1.538761	-0.4624619
H	-7.470971	-1.941321	-1.211724
C	-5.82696	-0.1457379	1.345006
C	-5.280405	-1.275622	0.8249644
C	-4.697414	-2.162125	1.624099
C	-4.480133	-1.812492	2.900985
H	-4.916758	-3.208591	1.354797
H	-4.60172	-2.530161	3.731313
H	-4.765428	-1.596992	-1.225663
C	-4.538396	-0.5276387	3.194854
C	-5.299468	0.3186005	2.482527
C	-4.021566	-0.021986	4.341635
C	-4.605407	1.040497	4.90956
H	-3.111225	-0.4176308	4.806859
H	-4.745242	1.075032	6.027552
C	-5.350391	1.617853	2.840144
C	-5.049713	1.920507	4.077917
H	-5.668816	2.418079	2.154295
H	-5.155328	2.970357	4.368247
78
Simulation Step: 900 Simulation Time (ps): 0.9 PotentialEnergy: 43.64726 kcal/mol Positions: A
C	-7.318254	-0.01715204	3.847116
C	-8.022098	2.314987	4.919477
C	-7.037311	0.2113792	5.142855
C	-7.749613	0.9421419	3.004081
C	-8.268282	2.046423	3.617621
C	-7.408491	1.388546	5.641112
H	-7.027881	1.735113	6.611841
H	-8.750305	2.953593	5.439498
C	-7.296132	-1.316004	3.540433
C	-6.973876	-3.750695	2.582455
C	-7.918025	-1.696138	2.454385
C	-6.423447	-2.103599	4.10779
C	-6.105387	-3.20504	3.438844
C	-7.549241	-2.818594	1.840567
H	-5.307432	-3.866546	3.777435
H	-7.580905	-4.573749	2.957489
C	-5.657825	-1.622789	5.090051
C	-6.076422	-0.5171356	5.715551
H	-5.070668	-2.324829	5.665634
H	-5.480292	-0.1403614	6.538853
C	-9.158307	-1.300265	2.238472
C	-11.38707	-0.1444554	1.489395
C	-9.674109	-0.3414844	3.016046
C	-9.835089	-1.80306	1.195379
C	-10.85898	-1.098584	0.7379436
C	-10.7019	0.3524863	2.510178
H	-11.29828	-1.355748	-0.2444819
H	-12.17988	0.5241908	1.106868
C	-9.470386	-2.995339	0.6618984
C	-8.16497	-3.231788	0.7339849
H	-10.10317	-3.841331	0.9453229
H	-7.733796	-4.003383	0.09548936
C	-7.897923	0.8436034	1.649769
C	-8.355433	0.5568921	-0.9881587
C	-8.808716	1.629299	1.061145
C	-6.9586	0.3511297	0.8155009
C	-7.199821	0.1919435	-0.4706197
C	-9.144833	1.255622	-0.1711208
H	-10.10251	1.589501	-0.5896573
H	-8.321141	0.8698141	-2.025036
C	-9.311073	-0.1700375	4.287364
C	-8.411937	0.4752445	6.699633
C	-8.681354	-1.085774	5.01817
C	-9.699476	1.007592	4.887229
C	-9.378507	1.235738	6.159305
C	-8.287731	-0.759351	6.255479
H	-8.837601	-2.13017	4.803884
H	-9.632426	2.173723	6.631777
H	-7.669364	-1.488625	6.788306
H	-8.178977	0.6960649	7.749254
C	-9.293258	2.744607	1.705713
C	-9.134748	2.859835	3.019817
H	-9.539703	3.670364	1.190723
H	-9.581796	3.706905	3.535255
C	-11.30852	1.267123	3.277181
C	-10.62585	1.732118	4.313993
H	-12.14084	1.844291	2.841466
H	-10.6456	2.802779	4.347528
C	-6.272595	-0.4291422	-1.182003
C	-5.513192	-1.313215	-0.5612956
H	-6.344223	-0.4201064	-2.300515
C	-5.803494	-0.07395356	1.302609
C	-5.160427	-1.070956	0.6997638
C	-4.291389	-1.885519	1.360507
C	-3.890593	-1.47271	2.541712
H	-4.228421	-2.906293	0.9986668
H	-3.363323	-2.208658	3.186841
H	-5.202194	-2.231177	-1.078311
C	-4.425887	-0.4129673	3.104864
C	-5.350361	0.323004	2.484419
C	-3.8554	0.01406728	4.212196
C	-4.255875	1.184732	4.655456
H	-3.465698	-0.7003719	4.956062
H	-3.879068	1.637216	5.549111
C	-5.840857	1.416948	3.044999
C	-5.366342	1.759849	4.225023
H	-6.597642	2.040521	2.536328
H	-5.567177	2.788179	4.56309
78
Simulation Step: 1000 Simulation Time (ps): 1 PotentialEnergy: 45.83408 kcal/mol Positions: A
C	-7.359564	0.03091522	3.851445
C	-8.059237	2.316444	4.902529
C	-6.865592	0.404086	5.043065
C	-8.138305	0.8173641	3.13058
C	-8.483071	1.965842	3.677754
C	-7.429832	1.422371	5.647292
H	-7.377694	1.495872	6.759222
H	-8.322347	3.330035	5.273494
C	-7.244109	-1.239635	3.461419
C	-6.697974	-3.692087	2.511797
C	-8.024687	-1.793961	2.511473
C	-6.332029	-1.998987	4.030379
C	-6.247192	-3.291779	3.709008
C	-7.795196	-3.068447	2.110034
H	-6.13832	-4.052325	4.502388
H	-5.935713	-3.874181	1.7121
C	-5.627775	-1.508162	5.041103
C	-6.134835	-0.4435705	5.708752
H	-5.087548	-2.259031	5.630874
H	-6.016607	-0.3673235	6.808205
C	-9.266285	-1.382582	2.305001
C	-11.51548	-0.1861338	1.549337
C	-9.889852	-0.5128554	3.063768
C	-9.990056	-1.832264	1.289847
C	-11.15802	-1.294904	0.9051328
C	-10.69838	0.3188451	2.448348
H	-11.66016	-1.621632	-0.02733908
H	-12.42772	0.3577103	1.260323
C	-9.598365	-2.981164	0.7346015
C	-8.685723	-3.708407	1.351328
H	-9.428414	-2.912523	-0.3533852
H	-8.451683	-4.707849	0.9868693
C	-8.133664	0.6966671	1.785705
C	-8.115459	1.0105	-0.8049521
C	-9.035195	1.418489	1.142771
C	-7.08247	0.1361354	1.09679
C	-7.138394	0.3649566	-0.229724
C	-9.189466	1.284304	-0.1499936
H	-10.17774	1.22743	-0.6163406
H	-7.910124	1.463498	-1.789658
C	-9.437524	-0.3374722	4.287041
C	-8.547539	0.03464014	6.760313
C	-8.716408	-1.306659	4.872602
C	-9.675609	0.7985669	4.869511
C	-9.247034	0.9674252	6.12839
C	-8.348825	-1.108049	6.121097
H	-8.765393	-2.31566	4.387741
H	-9.413935	1.987708	6.578325
H	-7.744679	-1.846093	6.659867
H	-8.729741	-0.07364334	7.836454
C	-9.208671	2.631841	1.657788
C	-9.011232	2.924165	2.951077
H	-9.514187	3.442593	0.9606695
H	-9.486717	3.788979	3.471384
C	-11.06035	1.434148	3.09198
C	-10.64844	1.569632	4.325823
H	-11.42629	2.30386	2.53061
H	-11.40673	1.873331	5.065303
C	-6.152857	-0.02745302	-1.024143
C	-5.140506	-0.7273192	-0.5463706
H	-6.317674	0.003383481	-2.098723
C	-5.951848	-0.3727303	1.619276
C	-5.099133	-0.9907973	0.7686744
C	-3.970628	-1.52054	1.230414
C	-3.615244	-1.264526	2.47205
H	-3.329068	-2.222614	0.6605302
H	-2.706769	-1.709301	2.873555
H	-4.300433	-1.054749	-1.148401
C	-4.3615	-0.4794399	3.288709
C	-5.514879	0.0436748	2.792864
C	-3.705601	0.277041	4.150118
C	-4.207272	1.405223	4.659194
H	-2.643814	0.04766602	4.375248
H	-3.801076	1.704232	5.641863
C	-6.027615	1.156523	3.345125
C	-5.458237	1.708109	4.382353
H	-6.666057	1.820928	2.749335
H	-5.811762	2.677244	4.77012
78
Simulation Step: 1100 Simulation Time (ps): 1.1 PotentialEnergy: 39.84164 kcal/mol Positions: A
C	-7.434559	-0.2139559	3.864864
C	-8.127798	2.120185	4.977346
C	-6.85211	0.1837023	4.998336
C	-8.011245	0.7431319	3.111878
C	-8.469822	1.826833	3.728938
C	-7.244968	1.322604	5.577025
H	-6.781744	1.652886	6.510264
H	-8.348493	3.134098	5.339437
C	-7.220237	-1.469403	3.415435
C	-6.811401	-3.948101	2.666883
C	-8.091769	-2.013134	2.561941
C	-6.349874	-2.234486	4.060286
C	-5.905612	-3.317492	3.41094
C	-7.775035	-3.222886	2.101443
H	-4.833185	-3.626066	3.447556
H	-6.987817	-5.031184	2.831831
C	-5.54604	-1.755282	5.046414
C	-5.773254	-0.4887931	5.451214
H	-5.283914	-2.500126	5.851655
H	-4.995684	-0.01045564	6.084621
C	-9.225317	-1.402455	2.228088
C	-11.35849	-0.07577012	1.414585
C	-9.65712	-0.3676353	2.96822
C	-9.996289	-1.903313	1.259862
C	-11.08351	-1.251126	0.889063
C	-10.80244	0.2471612	2.583471
H	-11.92199	-1.801784	0.4650585
H	-11.91567	0.6759376	0.8375439
C	-9.853546	-3.219975	1.060935
C	-8.682704	-3.800403	1.318168
H	-10.78624	-3.817572	0.9995472
H	-8.303491	-4.594359	0.6101049
C	-8.133202	0.6404478	1.77928
C	-8.059144	1.110026	-0.8646625
C	-9.102055	1.368385	1.20528
C	-7.001466	0.4547427	1.043258
C	-6.960667	0.6311419	-0.2997268
C	-9.090927	1.547904	-0.1350609
H	-10.0872	1.649394	-0.6108433
H	-8.213224	0.8469205	-1.934599
C	-9.314978	-0.3104966	4.24969
C	-8.678381	-0.1682913	6.863617
C	-8.727335	-1.340094	4.875131
C	-9.822306	0.6483591	5.070231
C	-9.339411	0.8295305	6.272795
C	-8.485844	-1.32411	6.211673
H	-8.783704	-2.359129	4.459112
H	-9.36247	1.787452	6.815954
H	-7.771137	-2.087351	6.597826
H	-8.452543	-0.05581853	7.943183
C	-9.778454	2.238402	1.94958
C	-9.160232	2.707487	3.059879
H	-10.63434	2.80594	1.519441
H	-9.197704	3.782091	3.333187
C	-11.28588	1.187288	3.396857
C	-10.60444	1.559359	4.492309
H	-11.99107	1.919496	2.938607
H	-10.88622	2.458511	5.099062
C	-5.994018	0.1451674	-1.073651
C	-5.011714	-0.5659117	-0.4594635
H	-5.7938	0.5574644	-2.072582
C	-5.865584	0.09799361	1.60389
C	-5.141826	-0.7824904	0.8743155
C	-4.325412	-1.541433	1.592755
C	-4.095679	-1.292701	2.891945
H	-3.875119	-2.434674	1.100855
H	-3.899444	-2.14643	3.569385
H	-3.996369	-0.4679257	-0.8971844
C	-4.509945	-0.1551837	3.427459
C	-5.516961	0.4372629	2.84573
C	-3.766271	0.5251147	4.308583
C	-4.423222	1.433148	5.030756
H	-2.748723	0.8180134	4.048472
H	-4.287569	1.274502	6.136134
C	-6.107021	1.435952	3.532425
C	-5.656332	1.758718	4.724804
H	-6.854969	2.070014	3.020559
H	-6.047317	2.703295	5.123473
78
Simulation Step: 1200 Simulation Time (ps): 1.2 PotentialEnergy: 48.60067 kcal/mol Positions: A
C	-7.281638	-0.2561204	3.641045
C	-8.411658	1.635583	5.187223
C	-6.778889	0.05118329	4.868
C	-8.020671	0.695507	3.098779
C	-8.659998	1.542178	3.889701
C	-7.292546	1.06615	5.604227
H	-6.964536	1.205647	6.65082
H	-8.719747	2.529403	5.749158
C	-6.993356	-1.441076	3.032487
C	-6.910111	-4.090459	2.625855
C	-8.003758	-2.101457	2.463461
C	-5.959844	-2.171923	3.515116
C	-5.89281	-3.444145	3.195485
C	-7.86647	-3.368526	2.068609
H	-4.971524	-4.007701	3.40114
H	-7.031896	-5.158202	2.797123
C	-5.56537	-1.915528	4.778324
C	-6.005885	-0.831098	5.442587
H	-4.630271	-2.354054	5.151155
H	-5.505789	-0.60457	6.375957
C	-9.214046	-1.571698	2.444224
C	-11.15805	-0.04919668	1.532163
C	-9.55584	-0.4745145	3.183736
C	-10.07729	-2.023549	1.54997
C	-10.85298	-1.189635	0.8927221
C	-10.59076	0.2253506	2.728827
H	-11.12998	-1.349357	-0.1694843
H	-11.81627	0.6669208	1.012463
C	-9.941394	-3.232299	1.03125
C	-8.769156	-3.866089	1.202349
H	-10.66307	-3.577162	0.2830662
H	-8.504638	-4.644483	0.4877424
C	-8.105315	0.8881503	1.771834
C	-8.117411	1.202417	-0.8971834
C	-9.108086	1.457083	1.187383
C	-7.042233	0.6654484	1.049662
C	-6.997023	0.7966059	-0.2714633
C	-9.185849	1.546984	-0.14776
H	-10.02632	2.080146	-0.618191
H	-8.103555	1.542539	-1.928626
C	-9.25441	-0.315091	4.476794
C	-8.660337	-0.06722517	6.955049
C	-8.545085	-1.258202	5.080435
C	-9.938708	0.5397128	5.219565
C	-9.5836	0.7387985	6.476802
C	-8.307734	-1.198834	6.373268