78
Simulation Step: 100 Simulation Time (ps): 0.1 PotentialEnergy: 90.40867 kcal/mol Positions: A
C	4.291001	-4.726849	3.124101
C	4.667154	-6.295528	5.232367
C	3.671144	-4.491594	4.271908
C	4.710809	-5.970433	2.9474
C	4.868409	-6.725904	4.019815
C	4.203904	-5.067256	5.331941
H	4.009122	-4.678624	6.332089
H	5.054352	-6.902713	6.074893
C	4.360003	-3.768266	2.199463
C	4.074291	-1.834808	0.4476516
C	5.455036	-3.431836	1.492238
C	3.233391	-3.026483	2.133068
C	3.021868	-2.19645	1.143679
C	5.144772	-2.604934	0.4893448
H	2.052504	-2.301723	0.5916553
H	4.130167	-0.8074486	-0.01933553
C	2.387425	-3.073278	3.145591
C	2.844779	-3.470469	4.310625
H	1.430457	-2.583586	3.043657
H	2.282012	-3.305243	5.277338
C	6.727936	-3.776761	1.718362
C	8.889521	-5.194993	1.706078
C	7.225982	-4.096968	2.930628
C	7.445159	-3.851544	0.565583
C	8.592576	-4.471672	0.5993426
C	8.249486	-4.977839	2.881889
H	9.217142	-4.562915	-0.3129759
H	9.019877	-6.241236	1.395228
C	7.037709	-3.313806	-0.5938334
C	5.860912	-2.689216	-0.6027853
H	7.861585	-2.699912	-1.089934
H	5.427728	-2.414512	-1.581537
C	4.845491	-6.560565	1.74212
C	6.150832	-6.814676	-0.3982871
C	5.797681	-7.504613	1.723418
C	4.137697	-6.302477	0.6007337
C	4.909763	-6.366046	-0.5124066
C	6.559195	-7.510641	0.6357882
H	7.488117	-8.122536	0.5489155
H	6.864573	-6.461255	-1.204581
C	6.882565	-3.432616	4.038065
C	6.504818	-2.023731	6.0736
C	6.06461	-2.421295	3.783733
C	7.428661	-3.755677	5.254597
C	7.130117	-3.166734	6.381384
C	6.005219	-1.612879	4.835801
H	5.944709	-2.067927	2.734541
H	6.83193	-3.877053	7.173594
H	5.172452	-0.840748	4.84595
H	6.179607	-1.422041	6.953423
C	6.131276	-8.151529	2.835846
C	5.520943	-7.868926	3.961099
H	7.15895	-8.587	2.870785
H	5.757032	-8.392786	4.944798
C	8.795294	-5.203429	4.054238
C	8.27663	-4.763988	5.16574
H	9.724634	-5.833673	4.168987
H	8.953424	-4.891862	6.046384
C	4.35181	-6.279152	-1.719008
C	3.24528	-5.490117	-1.794289
H	4.528055	-7.094872	-2.426874
C	2.863855	-5.934391	0.5182297
C	2.528315	-5.341599	-0.6357852
C	1.41122	-4.692517	-0.6222035
C	0.7029477	-4.618588	0.5045893
H	1.243741	-3.942959	-1.418796
H	0.3245313	-3.603519	0.7705165
H	3.082792	-4.86445	-2.647917
C	0.80304	-5.464562	1.490311
C	1.938847	-6.216698	1.419889
C	-0.2588238	-5.805033	2.171077
C	0.1010411	-6.779203	3.009225
H	-1.23262	-5.486152	1.760643
H	-0.4415679	-6.672796	3.997478
C	2.255538	-7.253643	2.184561
C	1.330243	-7.396113	3.143904
H	3.060122	-8.006646	1.933228
H	1.63888	-7.937818	4.070349
78
Simulation Step: 200 Simulation Time (ps): 0.2 PotentialEnergy: 80.63938 kcal/mol Positions: A
C	4.617853	-4.607455	3.108231
C	4.614067	-6.274682	5.244911
C	4.002813	-4.297099	4.283647
C	4.68053	-5.890535	2.935351
C	4.878544	-6.687731	3.996999
C	4.24981	-5.014517	5.35388
H	4.064974	-4.599362	6.370831
H	5.291722	-6.589468	6.063887
C	4.348952	-3.93531	2.039591
C	4.125904	-1.873674	0.4239675
C	5.33084	-3.548642	1.273994
C	3.326374	-3.13922	2.129531
C	3.092685	-2.299361	1.145145
C	5.304223	-2.433145	0.537991
H	2.286674	-1.559654	1.264181
H	3.816666	-1.781931	-0.6268994
C	2.754072	-2.770791	3.254382
C	2.961156	-3.472829	4.324901
H	1.791043	-2.182693	3.236622
H	2.077974	-3.690749	4.931972
C	6.527836	-3.998479	1.618014
C	8.771802	-5.233319	1.866416
C	6.882421	-4.314885	2.875685
C	7.336419	-4.033725	0.5642762
C	8.527947	-4.645031	0.6976389
C	7.952809	-5.150093	2.919049
H	8.923558	-5.192564	-0.1910577
H	9.672823	-5.878601	1.980473
C	7.153032	-3.159496	-0.4698009
C	6.254886	-2.181326	-0.3853507
H	8.107363	-2.816417	-0.932516
H	6.200958	-1.391878	-1.168266
C	4.980208	-6.347974	1.743674
C	6.054628	-6.829517	-0.5202682
C	5.964715	-7.27909	1.625054
C	4.244906	-6.015422	0.6802512
C	4.874386	-6.149115	-0.4784304
C	6.605314	-7.514286	0.4784985
H	7.670866	-7.826698	0.4072494
H	6.719104	-6.689434	-1.381179
C	6.70047	-3.40464	3.80231
C	6.295191	-1.760879	5.740685
C	5.97084	-2.293622	3.53243
C	7.177906	-3.768182	5.005744
C	7.095873	-2.832023	5.943911
C	6.022791	-1.316028	4.468041
H	5.844007	-1.985238	2.473406
H	7.344401	-3.081978	7.002497
H	5.395634	-0.3917009	4.352639
H	6.199561	-1.072151	6.603806
C	5.982314	-8.199996	2.60356
C	5.298131	-7.938123	3.745442
H	6.249074	-9.252291	2.430413
H	5.351358	-8.701259	4.539507
C	8.465504	-5.569904	4.081889
C	8.120044	-4.809424	5.096879
H	9.08847	-6.472059	4.189235
H	8.436413	-5.091863	6.12387
C	4.222168	-5.845673	-1.620983
C	2.91207	-5.62373	-1.603597
H	4.651409	-6.008086	-2.650098
C	3.020343	-5.565972	0.6809637
C	2.446485	-5.120768	-0.4626381
C	1.513216	-4.160227	-0.4108368
C	0.7106794	-4.462849	0.5887198
H	1.763393	-3.072973	-0.5426956
H	-0.3618145	-4.332117	0.3701618
H	2.399364	-5.648396	-2.602747
C	0.9869303	-5.396264	1.559654
C	2.257829	-5.820928	1.743575
C	-0.02235712	-5.950642	2.308674
C	0.3297318	-6.938177	3.188617
H	-0.8192112	-5.261074	2.695822
H	-0.3017326	-7.102926	4.089569
C	2.538155	-6.934196	2.504947
C	1.536688	-7.602247	3.117905
H	3.552661	-7.351503	2.574457
H	1.800444	-8.128859	4.068501
78
Simulation Step: 300 Simulation Time (ps): 0.3 PotentialEnergy: 77.18842 kcal/mol Positions: A
C	4.212857	-4.668234	3.082273
C	4.549761	-6.3255	5.266549
C	3.688352	-4.387861	4.259467
C	4.954929	-5.827255	2.979908
C	5.155475	-6.574502	4.068776
C	4.213429	-5.042687	5.341046
H	3.945463	-4.64655	6.307878
H	4.722004	-6.964957	6.143457
C	4.387102	-3.583823	2.253707
C	4.085758	-1.893967	0.2356173
C	5.223011	-3.731133	1.197715
C	3.51583	-2.529003	2.309221
C	3.167601	-1.891482	1.19404
C	5.141196	-2.730672	0.3035558
H	2.098667	-1.792578	1.033943
H	3.672548	-1.843501	-0.7676046
C	2.79194	-2.369651	3.437582
C	3.166125	-3.16318	4.427119
H	1.73477	-2.113007	3.29733
H	3.609264	-2.638946	5.261205
C	6.465626	-4.230801	1.42155
C	8.662369	-5.593842	1.848251
C	6.97143	-4.345428	2.662779
C	7.377481	-4.198327	0.4499867
C	8.50674	-4.864401	0.699253
C	7.822667	-5.331638	2.863064
H	9.328908	-4.749499	-0.006255895
H	9.623698	-6.08179	2.067395
C	7.352289	-3.041794	-0.2575028
C	6.219421	-2.305389	-0.3551945
H	8.285336	-2.597849	-0.5482636
H	6.230972	-1.227019	-0.5382129
C	5.001016	-6.431997	1.704032
C	5.886872	-6.962388	-0.8016443
C	5.795209	-7.447638	1.515009
C	4.399252	-5.913547	0.5755804
C	4.835273	-6.163342	-0.6589278
C	6.230824	-7.717658	0.2678115
H	7.205034	-8.187963	0.2301818
H	6.394053	-7.018404	-1.761882
C	6.866912	-3.390332	3.581966
C	6.298295	-1.564197	5.51074
C	6.011773	-2.407833	3.331656
C	7.112007	-3.571054	4.876252
C	6.966274	-2.650344	5.821539
C	5.8092	-1.463673	4.239974
H	5.622821	-2.359121	2.317114
H	7.481863	-2.765185	6.77485
H	5.27685	-0.5849613	3.937753
H	6.616271	-0.6211056	5.954412
C	6.126996	-8.133905	2.628574
C	5.630493	-7.812028	3.840347
H	6.586543	-9.117839	2.480645
H	5.202899	-8.606541	4.443081
C	8.145928	-5.491204	4.135255
C	7.813914	-4.650925	5.139117
H	8.817864	-6.315962	4.336513
H	7.629409	-5.012572	6.131987
C	4.035078	-5.782132	-1.695899
C	3.193323	-4.770917	-1.524619
H	4.322562	-6.046964	-2.725801
C	3.143627	-5.42296	0.6619191
C	2.555495	-4.843918	-0.3635867
C	1.303481	-4.513982	-0.2249122
C	0.873746	-4.392624	1.026368
H	1.052227	-3.752282	-0.967871
H	-0.08237946	-3.909542	1.165994
H	2.781029	-4.204313	-2.402687
C	1.138196	-5.284877	1.937077
C	2.382538	-5.797396	1.716566
C	0.1252556	-5.875322	2.578996
C	0.5918739	-7.047059	3.109408
H	-0.5654405	-5.264381	3.197807
H	-0.06954415	-7.566467	3.795197
C	2.805242	-6.775767	2.488567
C	1.906007	-7.40303	3.207832
H	3.831117	-7.170618	2.468571
H	2.172923	-7.948444	4.106797
78
Simulation Step: 400 Simulation Time (ps): 0.4 PotentialEnergy: 57.94685 kcal/mol Positions: A
C	4.323939	-4.588581	3.02658
C	4.803776	-6.059828	5.091232
C	3.78134	-4.240248	4.216635
C	4.978177	-5.719917	2.868816
C	5.045277	-6.585965	3.899414
C	3.785982	-5.190702	5.126687
H	2.933969	-5.358617	5.803017
H	5.060564	-6.643155	5.999099
C	4.248555	-3.753001	1.994398
C	4.139464	-1.904802	0.1513382
C	5.257878	-3.643246	1.148123
C	3.571975	-2.60906	2.224377
C	3.504035	-1.692682	1.296339
C	5.087089	-2.815246	0.101135
H	3.34898	-0.6131178	1.543315
H	3.681655	-1.51756	-0.7926818
C	3.32923	-2.14959	3.438829
C	3.112123	-3.083204	4.370856
H	3.722372	-1.171135	3.709361
H	2.136072	-3.09834	4.932148
C	6.476126	-4.06543	1.4892
C	8.421486	-5.771331	1.881402
C	6.794884	-4.453878	2.753066
C	7.368718	-4.134006	0.5030385
C	8.355068	-5.040289	0.7462955
C	7.761211	-5.393301	2.949106
H	8.961376	-5.453963	-0.07986328
H	8.840635	-6.797841	1.886684
C	7.119186	-3.483177	-0.6432981
C	6.018099	-2.773734	-0.8494478
H	8.00897	-3.203398	-1.247624
H	6.08714	-1.883521	-1.501512
C	5.155027	-6.184543	1.649651
C	5.516258	-7.186395	-0.7479593
C	5.988737	-7.248701	1.467067
C	4.410732	-5.741158	0.6457773
C	4.75947	-6.072768	-0.5910149
C	6.197065	-7.736976	0.2455141
H	7.034187	-8.431696	0.02958652
H	5.101772	-7.817254	-1.58809
C	6.442378	-3.601136	3.720241
C	6.241449	-1.477842	5.287621
C	5.75295	-2.513298	3.31762
C	7.062233	-3.693462	4.9304
C	6.972346	-2.581653	5.683255
C	5.820498	-1.397135	4.047633
H	5.495591	-2.411088	2.232552
H	7.65533	-2.486046	6.553578
H	5.173759	-0.5385912	3.747756
H	5.735602	-0.8710855	6.079256
C	6.217487	-8.016493	2.503411
C	5.863066	-7.618883	3.729073
H	6.728187	-8.996677	2.362222
H	6.394408	-8.070874	4.611108
C	8.263293	-5.536218	4.190868
C	8.12635	-4.520664	5.057722
H	8.665644	-6.508282	4.587319
H	8.649539	-4.676566	6.029333
C	4.172026	-5.340981	-1.605075
C	3.031141	-4.592382	-1.361362
H	4.586578	-5.265442	-2.610648
C	3.21624	-5.260245	0.8545738
C	2.596215	-4.557896	-0.1338275
C	1.469164	-3.913653	0.03315638
C	0.7720703	-4.33742	1.087262
H	1.49079	-2.837883	-0.1655195
H	-0.3239333	-4.390906	0.8934435
H	2.295933	-4.388195	-2.139154
C	1.261833	-5.245943	1.945949
C	2.473362	-5.784214	1.831823
C	0.4406383	-5.847345	2.814656
C	0.8283569	-6.918778	3.476922
H	-0.6304646	-5.687511	2.860018
H	0.04348978	-7.549399	3.944556
C	2.884208	-6.898206	2.542156
C	2.091808	-7.31422	3.542395
H	3.778691	-7.496877	2.248133
H	2.181894	-8.383041	3.773775
78
Simulation Step: 500 Simulation Time (ps): 0.5 PotentialEnergy: 55.00891 kcal/mol Positions: A
C	4.338285	-4.553191	3.050954
C	4.386811	-6.325467	4.908737
C	3.92942	-4.191151	4.210025
C	5.192222	-5.561311	2.889001
C	5.237498	-6.423988	3.871356
C	3.917501	-5.118772	5.165967
H	3.485828	-4.922863	6.188353
H	4.536623	-6.982042	5.788689
C	4.279241	-3.629478	2.083194
C	4.271403	-1.888484	0.0520516
C	5.12844	-3.798736	1.070759
C	3.759383	-2.392827	2.255649
C	3.509604	-1.681619	1.145632
C	5.045791	-2.996026	0.02367977
H	3.041036	-0.6912361	1.279496
H	4.330851	-1.122315	-0.7363648
C	3.14119	-2.15995	3.380198
C	3.299916	-3.011364	4.385774
H	2.595647	-1.190149	3.560536
H	2.391155	-3.084452	5.008188
C	6.360129	-4.245171	1.371666
C	8.277658	-5.969889	1.786599
C	6.927308	-4.28168	2.586553
C	7.149747	-4.607643	0.3676131
C	8.083943	-5.51836	0.5582631
C	7.817089	-5.208784	2.788509
H	8.976284	-5.476455	-0.1057986
H	9.07865	-6.710859	1.94709
C	6.886396	-4.109788	-0.8345843
C	5.785175	-3.380615	-1.010304
H	7.497132	-4.364627	-1.7474
H	5.559607	-2.979905	-2.019195
C	5.285375	-6.072206	1.630587
C	5.615053	-6.927635	-0.7693748
C	5.969487	-7.173695	1.408091
C	4.453616	-5.641234	0.6728429
C	4.655503	-5.987452	-0.6047206
C	5.893422	-7.771825	0.2292937
H	6.344787	-8.775693	0.08185972
H	6.504988	-6.658182	-1.334961
C	6.665778	-3.386755	3.550174
C	6.255242	-1.554966	5.323451
C	5.722486	-2.47779	3.298323
C	7.074501	-3.585039	4.799701
C	6.976068	-2.593001	5.711123
C	5.422119	-1.682356	4.285658
H	5.726962	-2.135831	2.277849
H	7.200876	-2.678586	6.803413
H	4.468767	-1.118246	4.283318
H	5.925925	-0.830987	6.095325
C	6.473403	-7.77468	2.505634
C	6.181013	-7.348866	3.731905
H	7.076673	-8.677008	2.410999
H	6.559538	-7.888706	4.613188
C	8.343719	-5.380427	4.003864
C	7.881181	-4.638859	5.008955
H	8.862724	-6.335246	4.223356
H	8.546732	-4.712349	5.902742
C	4.112571	-5.178749	-1.564056
C	3.116459	-4.340559	-1.260437
H	4.252351	-5.384609	-2.651161
C	3.337894	-4.963342	0.9935736
C	2.693191	-4.370162	0.002825334
C	1.497686	-3.881527	0.2728863
C	0.784178	-4.265193	1.318151
H	0.9809567	-3.333441	-0.5379679
H	0.2250439	-3.456413	1.814711
H	2.651242	-3.737072	-2.064759
C	1.23689	-5.309108	1.964392
C	2.556179	-5.579974	1.913924
C	0.4304911	-5.847342	2.87163
C	1.072054	-6.497743	3.858226
H	-0.5183861	-5.327511	3.179464
H	0.5414677	-6.855918	4.771854
C	3.053388	-6.51064	2.713198
C	2.245229	-7.005856	3.601246
H	3.863801	-7.150949	2.390932
H	2.27031	-8.1132	3.773431
78
Simulation Step: 600 Simulation Time (ps): 0.6 PotentialEnergy: 48.50737 kcal/mol Positions: A
C	4.466236	-4.392385	3.186395
C	4.846974	-5.973804	5.317972
C	3.963282	-4.019454	4.37551
C	4.956198	-5.612821	3.010545
C	5.219373	-6.374498	4.074916
C	4.016374	-4.91393	5.371914
H	3.140837	-4.923981	6.027885
H	5.736868	-5.861788	5.938036
C	4.509828	-3.472465	2.243213
C	4.242163	-1.994645	0.03494388
C	5.317355	-3.617718	1.204813
C	3.557521	-2.54127	2.208262
C	3.544756	-1.680839	1.150548
C	5.067459	-3.020158	0.03282046
H	3.342644	-0.6273842	1.335215
H	3.734352	-1.895087	-0.9166989
C	2.658041	-2.511204	3.220401
C	3.120928	-2.96248	4.402629
H	1.623642	-2.133385	3.096064
H	3.494847	-2.17117	5.03805
C	6.473182	-4.244093	1.224268
C	8.428417	-5.96733	1.557441
C	7.1915	-4.235824	2.337576
C	6.880486	-4.896228	0.1517747
C	7.835223	-5.813272	0.3445732
C	8.005575	-5.287056	2.625584
H	7.96534	-6.597583	-0.4048525
H	9.202091	-6.71137	1.755462
C	6.280187	-4.64575	-1.030602
C	5.504501	-3.530955	-1.105828
H	6.274478	-5.366499	-1.837521
H	4.902379	-3.399502	-2.010713
C	5.178805	-6.010209	1.751666
C	5.832066	-6.654254	-0.7036134
C	6.008079	-7.035137	1.494111
C	4.478801	-5.492909	0.7572775
C	4.897171	-5.699745	-0.4666687
C	6.552783	-7.137913	0.2984867
H	7.26643	-7.929117	0.09930574
H	6.193753	-6.833311	-1.72025
C	6.792572	-3.381297	3.289354
C	5.859962	-2.025315	5.37313
C	5.865845	-2.44587	3.103839
C	7.23031	-3.658193	4.537259
C	6.956015	-2.744889	5.481088
C	5.415135	-1.755566	4.176108
H	5.8327	-1.940094	2.114871
H	7.309615	-2.923841	6.497827
H	4.790171	-0.8703596	4.064292
H	5.250646	-1.855755	6.260865
C	6.524972	-7.633185	2.564929
C	6.13367	-7.358055	3.827758
H	7.427543	-8.256595	2.450285
H	6.168637	-8.194327	4.517853
C	8.355021	-5.584937	3.885627
C	7.804085	-4.814391	4.870916
H	8.963956	-6.459411	4.11429
H	7.619345	-5.148404	5.884614
C	4.209737	-5.145687	-1.495212
C	3.217256	-4.303182	-1.238488
H	3.994331	-5.860247	-2.335414
C	3.241177	-5.042068	0.9264746
C	2.634835	-4.385611	-0.04765093
C	1.515744	-3.744989	0.2463147
C	0.9910285	-3.929903	1.491548
H	0.9794888	-3.212824	-0.564607
H	-0.05366162	-3.641162	1.605139
H	3.049645	-3.40723	-1.899613
C	1.385744	-4.897751	2.271773
C	2.545212	-5.488863	1.978142
C	0.5595983	-5.619658	3.014232
C	1.151224	-6.336668	3.96396
H	-0.3748544	-5.119613	3.319281
H	0.6304929	-6.5776	4.891459
C	3.065426	-6.398786	2.778614
C	2.460576	-6.529608	3.930419
H	3.355294	-7.342441	2.27104
H	2.988336	-6.848573	4.826731
78
Simulation Step: 700 Simulation Time (ps): 0.7 PotentialEnergy: 43.17991 kcal/mol Positions: A
C	4.526542	-4.196411	3.186815
C	5.045392	-5.651422	5.321681
C	3.952032	-3.965344	4.334835
C	5.22771	-5.323293	3.037362
C	5.429165	-6.11057	4.123548
C	4.524369	-4.424854	5.432532
H	4.312678	-3.944783	6.389494
H	5.438702	-6.10086	6.242017
C	4.498717	-3.243486	2.267333
C	3.84167	-2.164725	-0.02519239
C	5.090087	-3.578473	1.125394
C	3.388595	-2.53228	2.203729
C	3.110542	-1.918522	1.064082
C	4.598652	-3.240521	-0.06173203
H	2.402322	-1.0527	1.070248
H	3.715697	-1.48191	-0.8966279
C	2.691056	-2.369443	3.333177
C	2.816414	-3.24515	4.361293
H	2.387549	-1.371896	3.608772
H	2.083073	-3.280796	5.207664
C	6.28055	-4.224634	1.160329
C	8.382267	-5.901898	1.260053
C	7.033139	-4.298392	2.253971
C	6.77605	-4.82431	0.05142375
C	7.924036	-5.505745	0.08938283
C	7.917928	-5.2752	2.328895
H	8.2251	-6.069557	-0.8082586
H	8.89015	-6.888871	1.335936
C	6.349375	-4.367405	-1.120796
C	5.327272	-3.530872	-1.168002
H	7.074025	-4.379367	-1.954517
H	4.97593	-3.18267	-2.15774
C	5.369416	-5.879475	1.856973
C	5.946668	-6.717649	-0.559139
C	6.221425	-6.88003	1.685061
C	4.523635	-5.698921	0.8880618
C	5.027325	-5.790281	-0.3425764
C	6.714072	-7.07879	0.4436101
H	7.398149	-7.946614	0.3351973
H	6.461265	-6.574202	-1.538195
C	7.181106	-3.392628	3.246878
C	5.645228	-2.586786	5.251001
C	6.561292	-2.249641	3.175331
C	7.420807	-3.816651	4.471651
C	6.6846	-3.341451	5.453915
C	5.58607	-2.029956	4.035498
H	7.144089	-1.345683	2.847245
H	7.044177	-3.498397	6.485058
H	4.983621	-1.097559	3.907593
H	5.370192	-1.843707	6.023724
C	6.627132	-7.546711	2.750816
C	6.133535	-7.224993	3.959532
H	7.29199	-8.428899	2.610937
H	5.825533	-8.086843	4.606975
C	8.426467	-5.631523	3.506946
C	8.209383	-4.885897	4.578561
H	9.157595	-6.476098	3.554302
H	8.9156	-4.937886	5.434441
C	4.366679	-5.370623	-1.394787
C	3.196971	-4.7183	-1.193381
H	4.463953	-5.998392	-2.280856
C	3.366059	-5.105732	1.046004
C	2.822671	-4.426279	0.0401352
C	1.808271	-3.549249	0.2829376
C	1.018443	-3.819469	1.342838
H	1.42861	-2.977201	-0.5819024
H	-0.04161078	-4.016281	1.066303
H	2.689943	-4.252767	-2.031013
C	1.477065	-4.639449	2.307415
C	2.617775	-5.33845	2.131096
C	0.7126029	-4.912863	3.380217
C	1.115134	-5.837812	4.257031
H	-0.1415255	-4.298512	3.649608
H	0.5499665	-5.939036	5.211692
C	3.077472	-6.182349	3.050494
C	2.164453	-6.617867	3.933815
H	4.074378	-6.650793	2.928751
H	2.471688	-7.383752	4.660128
78
Simulation Step: 800 Simulation Time (ps): 0.8 PotentialEnergy: 44.28635 kcal/mol Positions: A
C	4.610536	-4.126228	3.274581
C	5.129466	-5.638937	5.370372
C	4.020297	-3.874757	4.451353
C	5.314866	-5.267972	3.157416
C	5.640134	-5.98409	4.209883
C	4.167346	-4.744005	5.461793
H	3.372798	-4.871635	6.240737
H	5.560227	-6.071587	6.299362
C	4.507498	-3.266627	2.25188
C	3.433047	-2.429213	-0.06990568
C	5.125788	-3.418382	1.055946
C	3.406148	-2.542626	2.248188
C	2.804211	-2.334397	1.077659
C	4.636565	-2.929368	-0.07921539
H	1.955673	-1.624332	1.132591
H	2.792439	-2.702878	-0.9165403
C	2.779359	-2.224233	3.400557
C	3.204444	-2.81798	4.523773
H	2.572951	-1.136765	3.540273
H	3.059689	-2.277268	5.491278
C	6.298487	-4.023905	0.9919393
C	8.13335	-5.956064	0.9110101
C	6.949842	-4.34752	2.092032
C	6.883791	-4.374808	-0.1587506
C	7.707471	-5.435234	-0.2280967
C	7.78027	-5.414112	2.075309
H	7.895102	-5.968723	-1.179075
H	8.851691	-6.788455	0.8954758
C	6.402431	-3.820566	-1.286766
C	5.218993	-3.200567	-1.243852
H	7.08648	-3.490225	-2.117666
H	4.684546	-3.042037	-2.205249
C	5.504873	-5.895303	1.995006
C	6.161417	-6.882797	-0.3278347
C	6.349392	-6.936299	2.010501
C	4.661861	-5.714231	0.9683871
C	5.073617	-6.080323	-0.2526516
C	6.818587	-7.211325	0.7962494
H	7.579329	-8.009342	0.76203
H	6.619915	-7.046988	-1.303698
C	6.949264	-3.474216	3.109247
C	5.573741	-2.894946	5.231881
C	6.157288	-2.395765	3.114721
C	7.377271	-3.970728	4.233342
C	6.614638	-3.723832	5.303911
C	5.560799	-2.02055	4.25031
H	5.744338	-2.080317	2.162575
H	7.011761	-3.886472	6.323642
H	5.581543	-0.9536418	4.536963
H	5.046213	-2.622783	6.159609
C	6.85462	-7.583239	3.102734
C	6.478555	-7.034159	4.234422
H	7.745744	-8.185426	2.985463
H	7.044572	-7.275502	5.145425
C	8.46698	-5.678616	3.146519
C	8.188316	-5.038648	4.239879
H	9.006091	-6.631396	3.221179
H	8.479422	-5.533742	5.191077
C	4.26692	-5.794411	-1.299002
C	3.298532	-4.896595	-1.146626
H	4.291525	-6.443164	-2.188341
C	3.518554	-4.934491	1.125119
C	2.950088	-4.414176	0.04454231
C	1.733514	-3.868613	0.1553273
C	1.287477	-3.530674	1.362657
H	0.9444518	-4.343415	-0.4605497
H	0.5858271	-2.684974	1.453276
H	3.193233	-4.207891	-2.005289
C	1.73564	-4.248957	2.397595
C	2.688761	-5.10728	2.129568
C	1.255525	-4.244223	3.619397
C	1.239145	-5.435935	4.27582
H	0.8142632	-3.311262	4.054155
H	0.2834483	-5.732444	4.746449
C	2.962158	-6.097822	2.95482
C	2.148787	-6.332275	3.970582
H	3.677221	-6.839293	2.603883
H	2.236502	-7.300846	4.52436
78
Simulation Step: 900 Simulation Time (ps): 0.9 PotentialEnergy: 53.68989 kcal/mol Positions: A
C	4.424092	-4.184525	3.142476
C	5.01092	-5.625431	5.357767
C	4.202679	-3.714725	4.40127
C	5.319652	-5.215497	3.07289
C	5.736496	-5.786781	4.251404
C	4.166427	-4.606293	5.381649
H	3.292115	-4.610421	6.04637
H	5.339919	-6.092658	6.283798
C	4.300622	-3.300701	2.150377
C	3.205332	-2.431506	-0.1232359
C	4.869843	-3.610177	0.9567655
C	3.2865	-2.406061	2.181879
C	2.714843	-2.000705	1.04311
C	4.344218	-3.127927	-0.1627665
H	1.837027	-1.369652	1.054792
H	2.848913	-2.069309	-1.08919
C	2.864685	-2.031915	3.407382
C	3.389621	-2.630536	4.522322
H	2.305903	-1.074822	3.55401
H	3.392475	-2.087063	5.463418
C	6.099886	-4.105035	0.8787032
C	8.347243	-5.521194	0.6091666
C	6.81319	-4.353396	1.963732
C	6.685374	-4.276735	-0.302914
C	7.528708	-5.3087	-0.4339179
C	7.847301	-5.182369	1.802671
H	7.785465	-5.598764	-1.45212
H	9.194461	-6.221058	0.5614281
C	6.409307	-3.40524	-1.241916
C	5.201853	-2.808447	-1.125921
H	7.20557	-3.088671	-1.90018
H	5.084291	-1.851173	-1.644166
C	5.651268	-5.825881	1.922618
C	6.20039	-7.158603	-0.2696417
C	6.418145	-6.960527	1.961074
C	4.842573	-5.621821	0.8852019
C	5.286407	-6.172661	-0.2685472
C	6.714761	-7.635217	0.8566373
H	7.599409	-8.263281	0.7910127
H	6.380801	-7.77478	-1.158867
C	6.581741	-3.806925	3.157964
C	5.850273	-2.895607	5.533829
C	5.896321	-2.669229	3.224553
C	7.002198	-4.42058	4.285962
C	6.768382	-3.800042	5.415965
C	5.550182	-2.1681	4.430942
H	5.897906	-1.999645	2.354988
H	7.369416	-4.110704	6.266474
H	4.72878	-1.458623	4.433515
H	5.159411	-2.890833	6.388021
C	7.083705	-7.252072	3.07103
C	6.74917	-6.635952	4.203371
H	7.595181	-8.239993	3.175814
H	7.258601	-6.958446	5.106253
C	8.302476	-5.69858	2.941637
C	7.971265	-5.295648	4.190964
H	8.812149	-6.651461	2.887286
H	8.583699	-5.488017	5.073388
C	4.590067	-5.871329	-1.350809
C	3.458809	-5.146299	-1.233473
H	4.709731	-6.548881	-2.234033
C	3.519706	-5.240235	1.029133
C	2.951231	-4.646496	-0.08648597
C	1.855508	-3.808371	0.06034451
C	1.580849	-3.436903	1.310793
H	1.482406	-3.178917	-0.771439
H	0.9491668	-2.575109	1.536096
H	3.198449	-4.625959	-2.181821
C	2.005368	-4.177781	2.356193
C	2.947335	-5.137321	2.252991
C	1.499188	-4.043299	3.585607
C	1.412597	-5.044073	4.468458
H	1.137015	-3.040563	3.874725
H	0.4080442	-5.230933	4.842787
C	2.903475	-6.152332	3.169343
C	1.935414	-6.22954	4.097797
H	3.389593	-7.134789	2.966212
H	1.50756	-7.191846	4.392885
78
Simulation Step: 1000 Simulation Time (ps): 1 PotentialEnergy: 52.29481 kcal/mol Positions: A
C	4.204709	-4.339736	3.082795
C	5.257304	-5.218793	5.354383
C	3.802478	-3.86931	4.268524
C	4.991154	-5.404335	3.099699
C	5.704627	-5.634092	4.191991
C	4.441205	-4.193275	5.379073
H	3.919363	-3.966009	6.31104
H	5.709298	-5.623452	6.27829
C	3.919763	-3.605868	1.995151
C	3.441629	-1.867745	-0.003986953
C	4.747759	-3.538948	0.9544125
C	3.157694	-2.505879	2.18415
C	2.759151	-1.845482	1.131923
C	4.402181	-2.755621	-0.07321719
H	1.826467	-1.245244	1.211372
H	2.994883	-1.410183	-0.9174705
C	2.80548	-2.037568	3.396356
C	2.99205	-2.819423	4.430384
H	2.668762	-0.9769777	3.550174
H	2.292011	-2.823285	5.287109
C	5.971193	-4.118831	0.9057642
C	8.283593	-5.309749	0.8730752
C	6.676487	-4.265208	2.019046
C	6.65571	-4.15454	-0.2063072
C	7.848577	-4.739829	-0.2457395
C	7.681184	-5.134359	2.058859
H	8.596256	-4.383108	-0.9855931
H	9.039167	-6.118134	0.789914
C	6.025419	-3.742041	-1.322406
C	5.041605	-2.859659	-1.215896
H	6.19915	-4.212989	-2.311355
H	4.775186	-2.205302	-2.054103
C	5.273715	-6.167998	2.056474
C	6.117534	-7.102799	-0.1891635
C	6.414644	-6.84229	2.022855
C	4.382847	-6.355505	1.107545
C	4.921088	-6.534043	-0.095851
C	6.778551	-7.434317	0.8870166
H	7.766503	-7.964862	0.8077568
H	6.572375	-7.23886	-1.195919
C	6.45531	-3.436739	3.055542
C	6.037271	-1.963776	5.147887
C	5.530906	-2.482688	2.989564
C	7.165077	-3.661908	4.148063
C	7.148746	-2.764789	5.145272
C	5.16631	-1.854246	4.102437
H	5.316124	-2.05622	1.972218
H	8.072357	-2.509772	5.698342
H	4.221161	-1.239763	4.170975
H	5.597673	-1.838734	6.15562
C	7.115443	-6.980477	3.155407
C	6.516101	-6.662217	4.274292
H	8.187205	-7.286136	3.132861
H	6.823283	-7.131164	5.238308
C	8.323355	-5.430017	3.207718
C	8.038204	-4.711827	4.282021
H	9.039169	-6.287263	3.25141
H	8.631879	-4.740562	5.222431
C	4.57933	-5.816764	-1.147715
C	3.359332	-5.254251	-1.086255
H	5.388598	-5.282174	-1.630925
C	3.182936	-5.762737	1.219068
C	2.712528	-5.148005	0.1277757
C	2.127793	-4.005979	0.4547513
C	1.881655	-3.594982	1.719772
H	2.047579	-3.279078	-0.3600377
H	1.39412	-2.608539	1.901366
H	2.80417	-5.067512	-2.00208
C	1.740512	-4.552779	2.650229
C	2.454844	-5.651104	2.360946
C	1.267454	-4.369017	3.895678
C	1.098619	-5.457478	4.634728
H	0.9542763	-3.395068	4.27809
H	0.0854838	-5.529017	5.068275
C	2.167918	-6.749998	3.037312
C	1.716996	-6.605342	4.317345
H	1.881322	-7.617118	2.400847
H	1.949321	-7.362575	5.078329
78
Simulation Step: 1100 Simulation Time (ps): 1.1 PotentialEnergy: 66.12804 kcal/mol Positions: A
C	4.082387	-4.323396	3.2718
C	5.430723	-4.888868	5.465976
C	3.609267	-3.860837	4.421386
C	4.891533	-5.387924	3.278833
C	5.676663	-5.506022	4.326188
C	4.43757	-3.987417	5.446355
H	4.121461	-3.652324	6.453094
H	5.730522	-5.366025	6.351684
C	3.914673	-3.564306	2.197313
C	3.559252	-1.884831	0.1320583
C	4.875265	-3.374561	1.27475
C	2.905139	-2.725333	2.169861
C	2.733187	-1.850941	1.161518
C	4.392329	-2.920312	0.1301463
H	1.95677	-1.062412	1.209436
H	3.977635	-0.9424706	-0.2380564
C	2.233633	-2.495843	3.283088
C	2.565929	-3.033698	4.466448
H	1.156727	-2.253001	3.175947
H	1.755191	-3.167641	5.22052
C	6.215762	-3.669363	1.415352
C	8.426456	-5.262581	1.284982
C	6.902818	-4.023009	2.572221
C	6.806096	-4.070951	0.2650905
C	8.043087	-4.56719	0.215827
C	7.815022	-5.046706	2.437961
H	8.797968	-4.257792	-0.5264993
H	9.292866	-5.92748	1.200345
C	6.080456	-4.103882	-0.8533514
C	4.911839	-3.473283	-0.9603935
H	6.285293	-4.913486	-1.595754
H	4.344715	-3.549884	-1.907019
C	5.083704	-6.161202	2.197284
C	5.80477	-7.157007	-0.1747649
C	6.270169	-6.761684	2.05211
C	4.161205	-6.405312	1.276752
C	4.542761	-6.743529	0.04128841
C	6.666676	-7.263456	0.8675646
H	7.730798	-7.075177	0.6406438
H	6.050106	-7.629333	-1.13059
C	6.902657	-3.362059	3.80366
C	7.355833	-2.220021	6.28525
C	6.258407	-2.231734	4.172998
C	7.78297	-3.794277	4.751035
C	7.878293	-3.423959	5.998326
C	6.490611	-1.697676	5.394678
H	5.508055	-1.804389	3.497824
H	7.86059	-4.097448	6.826659
H	6.33482	-0.6013442	5.436944
H	7.703917	-1.65953	7.169785
C	6.850028	-7.119756	3.202633
C	6.578198	-6.48021	4.358579
H	7.604514	-7.890077	3.203274
H	7.238433	-6.603431	5.229678
C	8.466665	-5.465817	3.50122
C	8.799663	-4.530504	4.368516
H	9.154297	-6.315627	3.42766
H	9.85434	-4.288908	4.587854
C	3.816024	-6.097834	-0.8862181
C	2.840518	-5.265742	-0.5283887
H	3.938352	-6.363954	-1.958032
C	2.870131	-6.161431	1.513524
C	2.305251	-5.267869	0.70315
C	1.658444	-4.205759	1.253976
C	1.373725	-4.266948	2.567285
H	1.63898	-3.242101	0.7039623
H	0.4585823	-3.734995	2.845218
H	2.424223	-4.518711	-1.236104
C	1.536218	-5.412445	3.245439
C	2.435035	-6.243146	2.760547
C	1.244393	-5.585723	4.54079
C	1.418877	-6.773257	5.115123
H	0.6071438	-4.84291	5.051556
H	1.135446	-6.989612	6.163139
C	2.64618	-7.366513	3.414046
C	1.661015	-7.716494	4.259231
H	3.386432	-8.078791	3.039904
H	0.7926975	-8.198295	3.770399
78
Simulation Step: 1200 Simulation Time (ps): 1.2 PotentialEnergy: 436.0343 kcal/mol Positions: A
C	4.323965	-4.251209	3.591211
C	5.458355	-5.077368	5.716075
C	3.625546	-4.107895	4.709342
C	5.037897	-5.35154	3.474978
C	5.821071	-5.591584	4.536872
C	4.284215	-4.422203	5.812048
H	3.999863	-4.011018	6.792603
H	5.924749	-5.522694	6.629379
C	4.313673	-3.255926	2.731305
C	3.71834	-1.948545	0.5008372
C	5.259023	-3.095972	1.80841
C	3.112011	-2.673671	2.574002
C	2.821059	-1.973204	1.492716
C	4.819235	-2.693618	0.5968677
H	1.82908	-1.522495	1.378373
H	3.324019	-1.654498	-0.4814752
C	2.182242	-2.803221	3.515642
C	2.480094	-3.425832	4.686795
H	1.153235	-2.485292	3.28031
H	1.68616	-3.558785	5.435102
C	6.4886	-3.626669	1.819001
C	8.491215	-5.233331	1.028898
C	6.944253	-4.622578	2.621556
C	7.000496	-3.673872	0.5991312
C	8.25979	-4.035934	0.5064238
C	7.695537	-5.574045	2.031277
H	9.021908	-3.281627	0.7159023
H	9.047547	-6.021922	0.4899997
C	6.189336	-4.179009	-0.3146754
C	5.067402	-3.501655	-0.4198676
H	6.069518	-5.255584	-0.2354746
H	4.262547	-3.778317	-1.116846
C	4.985022	-6.15587	2.420901
C	5.461473	-6.964959	0.0658516
C	6.21474	-6.608198	2.148962
C	3.847804	-6.45657	1.724311
C	4.154254	-6.699037	0.4299179
C	6.479006	-7.047492	0.9239959
H	7.300278	-7.757097	0.7777364
H	5.714743	-7.090173	-0.9999657
C	7.803338	-4.235276	3.50607
C	9.968245	-2.867895	3.824351
C	7.641983	-3.434668	4.577941
C	8.937551	-4.451679	2.841138
C	9.541689	-3.332439	2.275826
C	8.950748	-3.109237	4.97911
H	6.895198	-2.626094	4.496898
H	10.01089	-3.024715	1.336057
H	9.251269	-3.292752	6.03791
H	11.00959	-2.526634	4.160651
C	6.913116	-7.041869	3.22659
C	6.826983	-6.437751	4.411725
H	7.452669	-8.014417	3.1669
H	7.568044	-6.607428	5.202896
C	8.344551	-6.36707	2.906969
C	9.270176	-5.593055	3.424871
H	8.661411	-7.372306	2.599566
H	10.18962	-6.058168	3.816233
C	3.318478	-6.110801	-0.4179918
C	2.409911	-5.203027	-0.01743002
H	3.350261	-6.34038	-1.501394
C	2.545311	-5.963463	2.018485
C	2.36308	-4.895956	1.296065
C	1.428125	-4.328323	2.027831