78
Simulation Step: 100 Simulation Time (ps): 0.1 PotentialEnergy: 97.23785 kcal/mol Positions: A
C	3.228503	-2.613859	5.346507
C	3.023185	-0.02771749	6.039345
C	2.353773	-1.808943	4.774011
C	3.855128	-2.209342	6.441939
C	3.807279	-0.8788612	6.642187
C	2.3478	-0.466283	4.975287
H	1.916708	0.2795697	4.25938
H	2.675989	0.8905565	6.600317
C	3.594	-3.713692	4.654178
C	3.618398	-6.36127	4.20429
C	4.800292	-4.374948	4.848179
C	2.637379	-4.284409	3.975547
C	2.669693	-5.585854	3.731682
C	4.712761	-5.737742	4.71019
H	1.74862	-6.042085	3.348203
H	3.575305	-7.393632	4.462366
C	1.61083	-3.567163	3.526956
C	1.477918	-2.304598	3.921098
H	1.333554	-3.679334	2.432709
H	0.4807689	-1.813379	3.831043
C	5.999326	-3.808901	4.620193
C	7.941678	-2.753891	5.728314
C	6.160674	-2.491851	4.317441
C	7.064381	-4.630392	4.905097
C	8.044353	-4.116145	5.581203
C	7.069597	-1.934043	5.107965
H	8.133431	-4.675214	6.482763
H	8.876003	-2.257632	6.057169
C	7.021818	-5.94664	4.643371
C	5.799852	-6.466019	4.695283
H	7.741674	-6.312821	3.905671
H	5.683473	-7.503802	5.034642
C	4.435831	-3.034374	7.346476
C	6.07897	-4.434183	8.89968
C	5.398163	-2.386622	8.037727
C	4.067637	-4.302046	7.719979
C	4.967333	-4.994416	8.446806
C	6.208086	-3.107063	8.776082
H	7.121211	-2.602154	9.179704
H	6.470478	-4.890799	9.886194
C	5.655497	-1.872138	3.245104
C	4.220431	-0.4492578	1.721541
C	4.784824	-2.620647	2.5457
C	5.814117	-0.5131564	3.142989
C	4.958351	0.3016162	2.576942
C	4.114719	-1.844398	1.666935
H	4.702476	-3.726121	2.59836
H	4.618136	1.126818	3.247038
H	3.252358	-2.344091	1.119855
H	3.970666	0.06702189	0.7784492
C	5.597314	-1.057725	7.976496
C	4.757418	-0.2914183	7.3207
H	6.523555	-0.696566	8.333719
H	5.226002	0.6170738	6.883411
C	7.40545	-0.7042587	4.827259
C	6.718122	-0.01282147	3.910019
H	8.072707	-0.1371169	5.535691
H	7.226749	0.8384	3.417843
C	4.864592	-6.354488	8.478243
C	3.696976	-6.913197	8.051818
H	5.786213	-6.942029	8.404396
C	2.839961	-4.791486	7.511724
C	2.738068	-6.120365	7.518854
C	1.748034	-6.564589	6.793874
C	0.6926903	-5.797318	6.515442
H	1.912796	-7.493917	6.1887
H	0.08289625	-6.126836	5.620183
H	3.370683	-7.667014	8.779858
C	0.5349654	-4.576756	6.965755
C	1.729888	-4.050928	7.396143
C	-0.6393865	-4.026395	7.118924
C	-0.4854581	-2.909613	7.813228
H	-1.529866	-4.507902	6.613474
H	-1.333375	-2.223125	7.645181
C	1.834144	-2.934183	8.092993
C	0.6812167	-2.271843	8.112086
H	2.77212	-2.622173	8.665639
H	0.6410322	-1.263158	8.590051
78
Simulation Step: 200 Simulation Time (ps): 0.2 PotentialEnergy: 79.15716 kcal/mol Positions: A
C	3.463183	-2.674583	5.251877
C	2.87108	-0.248498	6.203101
C	2.49486	-1.930614	4.706161
C	3.897595	-2.276103	6.421223
C	3.996189	-0.9230078	6.529596
C	2.055999	-0.8188339	5.313594
H	1.27627	-0.1754854	4.893794
H	2.403702	0.4451854	6.923957
C	3.601175	-3.878636	4.725551
C	3.570855	-6.353776	4.592279
C	4.794277	-4.502105	4.609105
C	2.465293	-4.392658	4.226628
C	2.586458	-5.695408	3.964445
C	4.790903	-5.851648	4.592116
H	2.228897	-6.11214	2.99541
H	3.313609	-7.412458	4.814195
C	1.973719	-3.606252	3.283661
C	1.907646	-2.291662	3.589579
H	2.203075	-3.760871	2.204648
H	1.198332	-1.645068	3.048257
C	5.875716	-3.788896	4.839149
C	7.972123	-2.547455	5.884295
C	5.959558	-2.45311	4.700308
C	6.967134	-4.454877	5.242086
C	8.109646	-3.786687	5.470644
C	7.016676	-1.778934	5.309175
H	9.035971	-4.348139	5.827167
H	8.11705	-2.490504	6.985695
C	7.034666	-5.747807	4.921622
C	5.951612	-6.500595	4.660947
H	7.982841	-6.279087	5.199554
H	6.070029	-7.60708	4.742353
C	4.642383	-3.061549	7.158695
C	6.079552	-4.402647	8.782875
C	5.622494	-2.47988	7.857468
C	4.149894	-4.190514	7.617486
C	5.088268	-5.002218	8.088713
C	6.207623	-3.072495	8.869361
H	6.250244	-2.716776	9.91143
H	6.914908	-4.999025	9.239503
C	5.211131	-1.930388	3.723992
C	3.923001	-0.8048912	1.773967
C	4.585751	-2.75646	2.839551
C	5.39184	-0.5988855	3.54836
C	4.868381	-0.07644249	2.41468
C	4.048565	-2.18339	1.724133
H	4.586955	-3.866625	3.035327
H	5.019364	0.9868466	2.097141
H	3.20462	-2.714626	1.235363
H	3.185229	-0.2417895	1.159863
C	5.774184	-1.132818	7.925492
C	4.862998	-0.3348565	7.393226
H	6.135552	-0.7294715	8.909893
H	4.673466	0.6775712	7.800059
C	7.358181	-0.5274614	4.863515
C	6.516402	0.0238109	4.036225
H	8.061847	0.1565694	5.367855
H	6.812619	0.9669785	3.470547
C	4.620906	-6.202171	8.484224
C	3.611384	-6.801059	7.823083
H	4.791397	-6.504121	9.560592
C	2.996857	-4.698476	7.174167
C	2.811418	-6.041514	7.081514
C	1.815224	-6.576388	6.368134
C	0.7832486	-5.74155	6.316335
H	1.645869	-7.642319	6.162946
H	-0.2256959	-6.189553	6.274085
H	3.487606	-7.918809	7.816909
C	0.8180529	-4.411654	6.720203
C	1.967998	-3.872724	7.143574
C	-0.3179398	-3.8563	7.244544
C	-0.3024646	-2.62461	7.821382
H	-1.307874	-4.111623	6.815867
H	-1.262363	-2.060116	7.928808
C	2.010571	-2.698014	7.873222
C	0.8608174	-2.132318	8.295815
H	2.951592	-2.232199	8.198204
H	0.8106536	-1.318004	9.056355
78
Simulation Step: 300 Simulation Time (ps): 0.3 PotentialEnergy: 61.74983 kcal/mol Positions: A
C	3.417194	-2.645084	5.209212
C	2.806286	-0.1773181	6.231971
C	2.474363	-1.926383	4.653693
C	4.038396	-2.138253	6.287934
C	3.905042	-0.8234558	6.648598
C	2.091374	-0.773445	5.231779
H	1.500295	-0.1293995	4.571285
H	2.661261	0.8836819	6.421306
C	3.554333	-3.953905	4.820897
C	3.807114	-6.496561	4.195775
C	4.769238	-4.549687	4.973762
C	2.672036	-4.504832	4.012986
C	2.627854	-5.850588	3.970415
C	4.861946	-5.837638	4.730742
H	1.702673	-6.433244	3.873026
H	4.090935	-7.3356	3.474094
C	2.033377	-3.662219	3.152561
C	1.880787	-2.380311	3.555089
H	1.231929	-4.125988	2.619843
H	1.045551	-1.765894	3.214093
C	5.893497	-3.817902	5.252912
C	8.080529	-2.389349	5.592545
C	5.881429	-2.538082	4.895207
C	7.06892	-4.433679	5.536174
C	8.211718	-3.726259	5.673512
C	6.868407	-1.810406	5.431168
H	9.009918	-4.074283	6.404156
H	8.939934	-1.728654	5.624643
C	6.991606	-5.813992	5.603598
C	6.051532	-6.423388	4.911896
H	7.286587	-6.320627	6.526418
H	6.086328	-7.520556	4.89714
C	4.747891	-2.949125	7.07245
C	6.082306	-4.490084	8.810567
C	5.581489	-2.40366	7.925909
C	4.377645	-4.225847	7.307528
C	4.970899	-4.958182	8.257444
C	6.424947	-3.220363	8.553934
H	7.450723	-2.958177	8.356975
H	6.883955	-5.177098	8.970824
C	5.184913	-2.101523	3.816259
C	3.769978	-1.00515	1.85796
C	4.1457	-2.784326	3.354209
C	5.204492	-0.8074647	3.544004
C	4.598672	-0.2449421	2.538427
C	3.560856	-2.299613	2.258222
H	4.342601	-3.847218	3.35804
H	4.810429	0.7916928	2.296489
H	2.775823	-2.884018	1.804538
H	3.743395	-0.8777747	0.7780957
C	5.761633	-1.085291	7.988605
C	4.783157	-0.2818074	7.510264
H	6.835923	-0.7241683	7.792976
H	4.727516	0.7772628	7.770192
C	6.891679	-0.552774	5.126973
C	6.120266	-0.08849222	4.161631
H	7.451432	0.08480188	5.81147
H	6.020896	1.00346	4.101586
C	4.683753	-6.268501	8.257572
C	3.683696	-6.686174	7.488666
H	4.972045	-6.870048	9.139017
C	3.208831	-4.558688	6.802819
C	3.00575	-5.853816	6.699314
C	1.841014	-6.268365	6.284508
C	0.8824239	-5.393923	6.098626
H	1.612163	-7.239282	6.70761
H	0.5082997	-5.309901	5.092927
H	3.382961	-7.738042	7.5399
C	0.8841121	-4.19933	6.686188
C	2.133365	-3.791875	6.95582
C	-0.2584622	-3.685155	7.169296
C	-0.02817338	-2.598117	7.889915
H	-1.025703	-3.528858	6.4252
H	-0.8446827	-1.959936	8.224939
C	2.285155	-2.632696	7.55152
C	1.175443	-2.039393	7.950621
H	3.252874	-2.255115	7.898476
H	1.289055	-1.205596	8.629261
78
Simulation Step: 400 Simulation Time (ps): 0.4 PotentialEnergy: 58.57427 kcal/mol Positions: A
C	3.370109	-2.679456	5.245862
C	3.140788	-0.08841144	5.738122
C	2.457804	-1.935109	4.565424
C	4.140417	-2.125835	6.181923
C	4.047775	-0.818445	6.436383
C	2.365451	-0.6429357	4.813666
H	1.859482	0.02719606	4.078894
H	2.734254	0.7979249	6.285474
C	3.543061	-3.93156	4.976769
C	4.025184	-6.342007	4.106158
C	4.683496	-4.490443	5.26685
C	2.736923	-4.494837	4.105762
C	3.310981	-5.464501	3.385224
C	4.770611	-5.82073	5.063339
H	3.80002	-5.088667	2.47168
H	4.448962	-7.206573	3.592735
C	1.608437	-3.867856	3.79682
C	1.499275	-2.555108	3.898083
H	0.6933684	-4.432744	4.037364
H	0.6964873	-2.046939	3.301958
C	5.742794	-3.772416	5.510299
C	7.967472	-2.421458	5.747642
C	5.796816	-2.577888	4.967017
C	6.830875	-4.485428	5.760621
C	7.972321	-3.75576	5.879261
C	6.852263	-1.832952	5.330412
H	8.597304	-4.100843	6.667365
H	8.858521	-1.889724	5.359256
C	6.744681	-5.81885	5.997837
C	5.701071	-6.562848	5.610672
H	7.708821	-6.298038	6.171205
H	5.380383	-7.450743	6.19877
C	4.959811	-2.914452	6.916848
C	6.061414	-4.376921	8.813522
C	5.823125	-2.398164	7.844216
C	4.526864	-4.161326	7.099661
C	5.239961	-4.915801	7.908807
C	6.533928	-3.138921	8.682173
H	7.152945	-2.757249	9.523502
H	6.148226	-4.990534	9.737183
C	4.914221	-2.15383	4.06264
C	3.321265	-1.126317	2.28643
C	4.089356	-2.964989	3.370841
C	4.946679	-0.8277972	3.836759
C	4.355444	-0.4398984	2.722932
C	3.396515	-2.442821	2.368121
H	4.110805	-4.067832	3.467498
H	4.737366	0.4786763	2.2246
H	2.644825	-3.098275	1.851299
H	2.588047	-0.6704403	1.604303
C	5.646864	-1.105445	8.137127
C	4.753864	-0.361197	7.481827
H	6.258146	-0.7071877	8.936138
H	4.596189	0.6567726	7.899616
C	6.905337	-0.5394581	5.081068
C	5.934287	-0.03474016	4.321714
H	7.233469	0.1089832	5.935343
H	5.564354	0.9253623	4.640086
C	4.915493	-6.206238	7.938171
C	3.824361	-6.640658	7.344989
H	5.708988	-6.937892	7.917848
C	3.220165	-4.44849	6.915164
C	2.905996	-5.778547	6.94744
C	1.980001	-6.224555	6.167385
C	1.043201	-5.340776	5.870947
H	2.235689	-7.07645	5.506732
H	0.2649347	-5.693674	5.151353
H	3.825409	-7.668712	6.925291
C	1.028272	-4.105858	6.461706
C	2.216481	-3.580083	6.765993
C	-0.05265292	-3.528783	7.026998
C	0.0163832	-2.3486	7.618536
H	-1.076799	-3.986633	7.062268
H	-0.8178008	-1.950854	8.212976
C	2.301222	-2.418745	7.468285
C	1.196748	-1.88194	7.956539
H	3.19884	-2.289267	8.133445
H	1.251644	-1.19264	8.82653
78
Simulation Step: 500 Simulation Time (ps): 0.5 PotentialEnergy: 51.14682 kcal/mol Positions: A
C	3.218879	-2.631754	5.408886
C	3.557069	-0.04806869	5.210653
C	2.207687	-1.961717	4.919539
C	4.030696	-1.990091	6.272062
C	4.208422	-0.643832	6.208193
C	2.390599	-0.625374	4.849937
H	1.633044	-0.03453268	4.325284
H	3.69375	1.0181	4.981073
C	3.501026	-3.904865	5.031783
C	4.058455	-6.315584	3.987929
C	4.59952	-4.588846	5.462913
C	2.691573	-4.44877	4.058344
C	2.9283	-5.701502	3.63009
C	4.741172	-5.834102	5.06195
H	2.03471	-6.333597	3.432909
H	4.325552	-7.217309	3.447127
C	1.572668	-3.821334	3.626502
C	1.316577	-2.626893	4.161394
H	1.191756	-4.012571	2.561418
H	0.2864721	-2.253936	4.08763
C	5.715124	-3.855239	5.634244
C	7.782034	-2.476817	6.231609
C	5.879564	-2.722407	4.970869
C	6.82197	-4.484372	6.08059
C	7.94224	-3.783499	6.210768
C	6.934521	-2.047951	5.313943
H	8.951367	-4.234644	6.358814
H	8.58039	-1.845311	6.650325
C	6.710584	-5.810814	6.227562
C	5.748025	-6.516536	5.586011
H	7.528893	-6.372162	6.761227
H	5.711947	-7.615999	5.528341
C	4.638556	-2.647617	7.28341
C	6.482319	-4.217174	8.393047
C	5.569312	-2.132964	8.030334
C	4.449053	-3.958514	7.389803
C	5.497536	-4.760616	7.663939
C	6.375466	-2.941131	8.710605
H	6.600619	-2.588811	9.732534
H	7.543656	-4.540839	8.213715
C	4.966497	-2.213335	4.167482
C	2.95936	-1.249992	2.694715
C	4.175493	-3.009081	3.489043
C	4.815731	-0.9108898	4.008182
C	3.716364	-0.3829168	3.357365
C	3.11363	-2.535452	2.86972
H	4.304876	-4.108748	3.515414
H	3.881802	0.5861993	2.836291
H	2.768143	-3.169934	2.044324
H	2.088531	-0.8785439	2.107961
C	5.636348	-0.7938819	8.127116
C	4.914205	-0.07072277	7.226975
H	6.223149	-0.2499654	8.858768
H	4.906129	1.026043	7.330318
C	7.017157	-0.8280813	4.783222
C	5.918498	-0.2270153	4.340255
H	7.884168	-0.1954647	5.026066
H	5.974748	0.8883854	4.386401
C	5.273553	-6.1177	7.490159
C	4.109292	-6.607563	7.046829
H	5.960002	-6.813374	8.038122
C	3.30522	-4.479732	6.978004
C	3.215844	-5.747052	6.594064
C	2.070218	-6.098876	6.013276
C	0.9987676	-5.304987	6.072256
H	1.98308	-7.006946	5.395298
H	0.2988575	-5.315328	5.217557
H	3.797039	-7.639946	7.280748
C	1.035799	-4.118583	6.67069
C	2.241193	-3.668472	7.038554
C	-0.1047643	-3.384791	6.777339
C	0.08947653	-2.185045	7.286541
H	-1.010026	-3.500076	6.123366
H	-0.8108946	-1.664067	7.678899
C	2.328035	-2.554437	7.75891
C	1.261722	-1.784767	7.688906
H	2.881462	-2.605802	8.692356
H	1.346174	-0.698958	7.868102
78
Simulation Step: 600 Simulation Time (ps): 0.6 PotentialEnergy: 56.23579 kcal/mol Positions: A
C	3.281216	-2.678271	5.448372
C	3.343371	0.05586952	5.584842
C	2.319413	-1.962401	4.876223
C	4.075513	-1.998629	6.287022
C	4.221826	-0.6797064	6.205339
C	2.368377	-0.6182026	5.010793
H	1.429298	-0.07004351	4.887487
H	3.213432	1.063075	5.980697
C	3.306264	-4.007104	5.271862
C	3.684387	-6.484241	4.561588
C	4.504114	-4.539312	5.441337
C	2.350861	-4.587576	4.558049
C	2.555379	-5.869538	4.282601
C	4.689791	-5.828044	5.101423
H	1.903553	-6.466534	3.648156
H	3.767485	-7.609435	4.620292
C	1.42155	-3.851956	3.918784
C	1.456915	-2.518427	3.99843
H	0.6721231	-4.340281	3.303262
H	0.4953695	-2.015886	3.831239
C	5.614093	-3.829171	5.639171
C	7.957329	-2.580089	5.940164
C	5.815594	-2.627255	5.118763
C	6.630728	-4.489234	6.178097
C	7.699049	-3.757991	6.511831
C	6.961759	-1.959334	5.288839
H	8.042533	-3.809031	7.598148
H	9.008186	-2.393206	5.684034
C	6.766761	-5.790562	5.931978
C	5.902581	-6.375792	5.147906
H	7.727738	-6.274981	6.101234
H	6.233055	-7.283706	4.616018
C	4.576363	-2.585465	7.37689
C	6.554269	-4.026121	8.27606
C	5.623371	-1.988997	8.001135
C	4.400768	-3.903705	7.594575
C	5.449538	-4.66127	7.860512
C	6.749502	-2.687931	8.190777
H	7.703475	-2.288696	7.848134
H	7.27063	-4.548267	8.870825
C	4.991805	-2.235772	4.148581
C	3.025335	-1.152417	2.973292
C	4.091916	-3.059583	3.53934
C	4.886813	-0.8961835	4.059435
C	3.812687	-0.3423266	3.578898
C	2.979379	-2.464498	3.079724
H	4.175548	-4.141231	3.546168
H	3.627451	0.7117099	3.387978
H	2.47189	-2.937923	2.234558
H	2.013363	-0.7266929	2.973432
C	5.675949	-0.6528723	7.973127
C	5.253983	-0.1206118	6.836123
H	6.528108	-0.1807691	8.574053
H	5.82829	0.7036709	6.413996
C	7.024906	-0.6719718	5.01423
C	5.96144	-0.160356	4.334393
H	7.819215	-0.05507509	5.463461
H	6.199173	0.688746	3.663914
C	5.401488	-5.927319	7.416217
C	4.358017	-6.362584	6.693477
H	5.959286	-6.686686	7.983326
C	3.222696	-4.49203	7.338682
C	3.249064	-5.636361	6.644688
C	2.181193	-6.279715	6.220467
C	1.042013	-5.568249	6.268342
H	2.226399	-7.378072	6.264598
H	0.1315055	-6.140995	6.386438
H	4.332236	-7.362676	6.24079
C	1.109851	-4.2558	6.560061
C	2.023322	-3.858184	7.454809
C	0.02659429	-3.497194	6.424359
C	0.03804144	-2.251558	6.878645
H	-0.9373267	-3.923626	6.234216
H	-0.4287601	-1.486807	6.268651
C	1.946077	-2.658251	8.075019
C	0.8614031	-1.873446	7.843478
H	2.875423	-2.080691	8.21143
H	1.155914	-0.8234764	7.778206
78
Simulation Step: 700 Simulation Time (ps): 0.7 PotentialEnergy: 53.10466 kcal/mol Positions: A
C	3.177526	-2.595362	5.597556
C	3.252928	0.1099731	5.421549
C	2.166485	-1.914464	5.051263
C	3.992596	-1.908991	6.36403
C	4.142038	-0.5732916	6.155767
C	2.203476	-0.5908268	4.957982
H	1.353352	-0.1418701	4.406003
H	3.327251	1.198039	5.170358
C	3.424907	-3.910548	5.335453
C	3.516494	-6.542568	4.910686
C	4.613491	-4.532783	5.324045
C	2.368411	-4.581109	4.902292
C	2.369845	-5.908358	4.790046
C	4.647938	-5.858279	5.04203
H	1.379119	-6.358198	4.66775
H	3.466692	-7.628497	4.983358
C	1.244072	-3.957767	4.583962
C	1.233052	-2.624925	4.415266
H	0.3639286	-4.584162	4.42564
H	0.2146953	-2.191436	4.287712
C	5.697895	-3.867182	5.762277
C	8.081409	-2.696378	6.055936
C	5.849002	-2.538981	5.565889
C	6.778097	-4.574625	6.086084
C	7.928036	-3.962234	6.404915
C	7.101819	-2.034729	5.471129
H	8.791922	-4.548967	6.678218
H	8.977374	-2.073949	6.252362
C	6.751216	-5.898765	5.85032
C	5.817972	-6.502183	5.091163
H	7.732782	-6.389279	5.917177
H	5.885571	-7.567841	4.818405
C	4.67158	-2.564295	7.275349
C	6.46848	-4.012178	8.526502
C	5.8599	-2.027508	7.618092
C	4.341345	-3.821534	7.634116
C	5.377196	-4.58991	8.011445
C	6.71472	-2.705534	8.392056
H	7.277713	-2.117262	9.138504
H	7.270357	-4.683002	8.90324
C	4.929101	-1.855197	4.869186
C	4.035388	-1.041948	2.619299
C	4.174516	-2.655701	4.114261
C	5.193439	-0.5838923	4.453111
C	4.990085	-0.2927111	3.154655
C	3.930964	-2.351016	2.87873
H	4.368864	-3.733764	4.159783
H	5.04834	0.7871312	2.825361
H	4.113088	-3.056954	2.049098
H	3.778628	-0.6968795	1.591587
C	6.107272	-0.7545397	7.344419
C	5.254566	0.02302891	6.655482
H	6.77949	-0.2075257	8.031713
H	5.220991	1.11748	6.875093
C	7.270068	-0.7254462	5.346463
C	6.209004	0.01427956	5.042677
H	8.268602	-0.3160679	5.045361
H	6.328657	1.090624	4.921108
C	5.419026	-5.827132	7.518903
C	4.323545	-6.481962	7.166159
H	6.286885	-6.447006	7.720413
C	3.231811	-4.432837	7.250774
C	3.195685	-5.759869	7.044402
C	2.04181	-6.332578	6.71612
C	1.067439	-5.601971	6.109565
H	1.985746	-7.43755	6.651113
H	0.3086569	-6.135849	5.479528
H	4.396291	-7.388291	6.532212
C	1.150597	-4.275593	6.237638
C	2.083185	-3.753808	7.089703
C	0.06461783	-3.510143	6.01849
C	-0.4680538	-2.976834	7.125041
H	-0.5084137	-3.594519	5.056878
H	-1.558827	-2.994331	7.312395
C	1.575031	-3.244131	8.205381
C	0.39923	-2.597182	8.126117
H	2.297488	-3.116995	9.055573
H	-0.02020391	-2.149436	9.04498
78
Simulation Step: 800 Simulation Time (ps): 0.8 PotentialEnergy: 595.6265 kcal/mol Positions: A
C	3.126979	-2.605372	5.601289
C	2.675073	-0.02825155	6.428943
C	2.089007	-1.94306	5.172266
C	3.951063	-1.934367	6.373527
C	3.885977	-0.5926373	6.440182
C	1.808093	-0.6827498	5.687226
H	0.7133756	-0.3976319	5.737982
H	2.349305	0.4104463	7.376603
C	3.470855	-3.809566	5.115783
C	3.490043	-6.470479	5.055597
C	4.572172	-4.462954	5.432574
C	2.762762	-4.454361	4.192831
C	2.827064	-5.796978	4.073907
C	4.602654	-5.86154	5.438273
H	2.196824	-6.215494	3.269895
H	3.562858	-7.56171	4.970098
C	1.677061	-3.814886	3.775662
C	1.264796	-2.74582	4.497753
H	1.033599	-4.18071	2.926893
H	0.2321134	-2.394287	4.413838
C	5.776322	-3.813135	5.392789
C	8.011115	-3.033064	6.563692
C	6.069803	-2.318895	5.377463
C	6.649244	-4.670782	6.047237
C	7.799763	-4.304054	6.502124
C	7.237604	-2.158597	5.969533
H	8.509067	-5.010729	6.956358
H	9.037464	-2.716808	6.804318
C	6.735981	-5.976348	5.8081
C	5.708469	-6.584179	5.25705
H	7.753949	-6.411765	5.66553
H	5.722945	-7.615287	4.858283
C	4.454331	-2.626389	7.387874
C	6.286321	-4.061248	8.555817
C	5.686236	-2.078425	7.749834
C	4.055746	-3.993425	7.628638
C	5.202841	-4.618258	7.993205
C	6.571214	-2.770965	8.454612
H	7.571044	-2.394333	8.765045
H	6.827375	-4.658972	9.339054
C	5.517225	-0.8957754	4.916755
C	5.836765	1.336934	6.028394
C	4.278168	-0.2452871	4.897696
C	6.490727	0.08459643	4.726177
C	6.220207	1.378536	4.80997
C	4.416584	1.107998	5.464627
H	3.542669	-0.5750027	4.119918
H	6.881279	2.200059	4.490324
H	3.9484	1.831445	4.830867
H	6.059398	2.020405	6.941488
C	5.907833	-0.7628677	7.485612
C	4.990752	0.01523436	6.876777
H	6.910856	-0.3898392	7.535696
H	4.911486	1.018606	7.372671
C	7.67597	-0.9914645	6.285646
C	7.114702	0.06908359	5.846567
H	8.611207	-0.869922	6.825449
H	7.506485	1.037567	6.2173
C	5.39671	-5.920916	7.886196
C	4.505387	-6.71499	7.407736
H	6.114464	-6.393004	8.586036
C	2.834185	-5.022801	7.526164
C	3.444612	-6.065705	7.014036
C	2.892126	-6.909211	6.226915
C	2.02502	-6.020264	5.592082
H	2.923679	-7.814642	6.804574
H	1.969352	-6.735019	4.758986
H	4.610194	-7.803185	7.260418
C	0.8565772	-5.651688	6.342969
C	1.51544	-5.802987	7.478589
C	-0.1997267	-6.495903	6.036654
C	0.3932488	-7.792161	5.639276
H	-1.347414	-6.311671	6.037257
H	-0.5070149	-8.551452	5.466537
C	1.678231	-7.355435	7.530149
C	1.663746	-8.336526	6.532109
H	1.232567	-8.073396	8.49979
H	2.468266	-8.953029	6.02113
78
Simulation Step: 900 Simulation Time (ps): 0.9 PotentialEnergy: 1264.527 kcal/mol Positions: A
C	2.675395	-2.90222	5.74466
C	1.234457	-1.708524	7.37292
C	1.401922	-2.487182	5.286133
C	2.731041	-3.648043	6.973562
C	2.190945	-2.633505	7.737473
C	0.7826599	-1.681223	6.119284
H	-0.2202668	-1.221366	5.993586
H	1.310956	-0.747489	7.907817
C	3.74088	-2.557006	4.91751
C	4.808644	-3.856089	2.792042
C	5.32935	-2.684328	5.171206
C	3.08007	-2.743773	3.488632
C	3.518422	-3.664079	2.694978
C	5.442705	-3.581633	4.035102
H	2.768424	-4.11172	1.990203
H	5.106204	-4.770108	2.253775
C	1.773229	-2.804651	3.131329
C	1.040304	-2.177258	4.015329
H	1.400536	-3.315102	2.221026
H	0.5206306	-1.287607	3.629665
C	6.830849	-2.702696	6.060106
C	7.861124	-4.552701	7.816837
C	8.211373	-2.528001	7.144197
C	6.883012	-3.985077	5.972557
C	6.760746	-4.509911	7.158341
C	8.74324	-3.762069	7.061222
H	5.912714	-5.178653	7.200634
H	7.552602	-4.867256	8.855761
C	6.930343	-4.597804	4.842083
C	5.692492	-4.724642	4.564703
H	7.639393	-5.387544	4.604583
H	5.320139	-5.722677	4.203896
C	3.628066	-4.585055	7.880722
C	5.764347	-5.103648	9.460085
C	4.627943	-3.724257	8.429002
C	4.21088	-6.015076	8.108905
C	5.434866	-5.881223	8.375286
C	5.812335	-3.915149	9.0108
H	6.755059	-3.378361	8.874427
H	5.483833	-4.587419	10.44055
C	9.685214	-2.071174	7.839919
C	11.35914	-4.238109	6.613283
C	10.45639	-2.873981	8.812019
C	10.66991	-1.95302	6.854
C	11.67576	-2.807963	6.391859
C	11.11153	-4.076316	8.145756
H	10.53549	-2.544223	9.882708
H	12.26486	-2.566909	5.470641
H	12.01707	-4.37904	8.598186
H	12.03712	-5.11561	6.233769
C	4.390682	-2.42174	8.506426
C	3.185124	-1.895918	8.266041
H	4.755974	-2.019722	9.48372
H	3.245176	-0.8333599	7.938428
C	9.643334	-3.604393	5.968573
C	9.983817	-2.18892	5.817872
H	10.05662	-4.56348	5.276338
H	10.02002	-1.376883	5.059505
C	5.828841	-6.61158	7.338264
C	4.684393	-7.327902	6.754082
H	6.669858	-7.196874	7.789263
C	4.22131	-7.371585	8.757276
C	4.256804	-8.34549	7.703197
C	4.787499	-9.680509	8.27358
C	6.087451	-9.396408	9.080218
H	3.933465	-10.09706	8.746235
H	6.935119	-10.12524	8.973248
H	3.911554	-6.724134	6.077559
C	6.299345	-8.114483	10.0415
C	5.382377	-7.147736	9.892243
C	7.237623	-7.942977	11.31579
C	7.282275	-6.810117	12.32128
H	7.0119	-8.901361	11.82621
H	7.951212	-7.185538	13.19756
C	5.767165	-5.874791	10.78368
C	6.750715	-5.491478	11.96394
H	4.852384	-5.418671	11.10583
H	6.286487	-4.65187	12.49166
78
Simulation Step: 1000 Simulation Time (ps): 1 PotentialEnergy: 1361.045 kcal/mol Positions: A
C	5.038666	-4.093584	7.381521
C	2.586169	-4.985786	7.725894
C	3.94423	-3.55898	6.774759
C	4.754064	-5.046151	8.533772
C	3.510384	-4.866844	8.710218
C	2.703438	-4.033015	6.823455
H	2.537186	-4.43157	5.815638
H	2.031496	-5.924151	7.577501
C	6.099086	-3.143914	6.97006
C	7.701027	-1.134052	5.923887
C	7.520183	-3.489704	6.65307
C	5.703457	-1.819498	6.378886
C	6.421346	-0.9945627	5.65368
C	7.907547	-2.473099	5.862475
H	5.965919	-0.07016058	5.221556
H	8.30796	-0.6750324	5.125365
C	4.472306	-1.441661	6.206508
C	3.812022	-2.500326	5.980994
H	4.100157	-0.6162757	6.822634
H	3.159563	-2.482495	5.108386
C	7.735824	-4.872585	5.898214
C	6.871592	-7.168302	5.202871
C	8.705834	-5.796643	4.894185
C	6.51023	-4.964036	5.398457
C	5.915554	-6.257643	5.304352
C	7.754048	-6.533827	4.424551
H	5.196281	-6.660106	6.019772
H	7.245493	-7.62431	6.221076
C	6.290778	-3.845279	4.684643
C	7.337808	-2.96912	4.715074
H	5.268376	-3.39469	4.381196
H	7.215108	-2.486019	3.78282
C	5.058918	-4.846888	9.99247
C	5.673406	-6.36263	9.323503
C	5.859697	-3.987787	9.725067
C	5.393563	-5.541594	11.06627
C	5.281947	-6.770186	10.59345
C	6.227354	-4.963	8.909115
H	6.938558	-4.796598	8.078611
H	4.976583	-6.735748	8.503107
C	9.374474	-5.945836	3.435281
C	7.657216	-3.963403	1.336985
C	8.389505	-6.495106	2.621036
C	9.307821	-4.739275	2.810745
C	9.030359	-4.237678	1.359076
C	7.463837	-5.3897	1.916
H	8.196843	-7.624983	2.64338
H	9.513356	-4.83595	0.5343161
H	6.511459	-5.740046	1.53776
H	7.243834	-3.930249	0.308821
C	4.927411	-3.070809	9.504231
C	3.61014	-3.694285	9.483768
H	4.885951	-2.009132	9.879495
H	3.346593	-3.973716	10.52227
C	7.250253	-5.346243	3.956847
C	8.163022	-4.337926	3.438158
H	6.105502	-5.210085	3.822955
H	7.360768	-3.666946	2.901135
C	6.180932	-7.593565	11.12266
C	7.32774	-7.457672	10.55534
H	6.259412	-7.960827	12.18113
C	6.746052	-5.361725	11.56465
C	7.72006	-6.206868	10.9174
C	9.004616	-6.110682	11.35878
C	9.260623	-5.991024	12.63272
H	9.466958	-7.140303	11.35456
H	9.391414	-6.778961	13.46348
H	8.037352	-8.318788	10.81279
C	8.583066	-4.917401	13.04853
C	7.278737	-4.816278	12.78436
C	9.021646	-3.443937	12.89126
C	7.8545	-2.669865	13.57617
H	9.740215	-3.48892	11.88459
H	7.69425	-2.772942	14.91354
C	6.450773	-3.507686	13.32507
C	6.373581	-2.011754	13.0384
H	6.885615	-3.156513	14.58945
H	6.599188	-0.88638	12.36335
78
Simulation Step: 1100 Simulation Time (ps): 1.1 PotentialEnergy: 1665.368 kcal/mol Positions: A
C	6.041669	-6.026919	7.080104
C	3.712539	-5.71643	7.86477
C	5.246139	-5.297112	6.336134
C	5.744595	-5.658174	8.632078
C	4.56234	-5.032712	8.735254
C	4.02962	-5.720048	6.515648
H	3.517358	-6.43163	5.84679
H	2.902356	-6.490473	8.28538
C	7.214892	-5.599714	6.226877
C	8.982367	-3.455697	6.234823
C	7.170867	-4.431442	5.059089
C	7.904119	-5.07971	7.157617
C	9.173036	-4.547942	7.02558
C	7.701016	-3.461345	5.742001
H	9.603572	-4.412118	8.038062
H	9.355563	-2.593777	6.733559
C	6.863005	-4.254467	7.636954
C	5.73948	-4.186912	6.806994
H	7.202113	-3.356133	8.180194
H	4.962325	-3.417486	6.968678
C	6.369954	-3.436761	4.029109
C	5.539329	-3.933905	2.34315
C	5.70039	-2.025419	3.391532
C	5.378718	-4.023636	4.498092
C	5.114172	-4.796355	3.448827
C	5.039993	-2.594234	2.327456
H	5.467061	-5.867665	3.51279
H	6.215966	-4.038437	1.474076
C	5.338139	-3.052102	5.476808
C	6.786782	-2.541175	5.537011
H	4.446518	-2.470362	5.740121
H	6.894145	-1.582222	6.166317
C	6.50269	-5.06169	9.825535
C	8.830079	-3.832324	11.3613
C	7.176299	-4.319537	9.182939
C	6.129537	-3.853481	10.86789
C	7.381995	-3.253449	11.67806
C	8.57998	-3.956684	9.807943
H	9.076541	-3.092321	9.288162
H	8.676258	-4.65199	12.10095
C	5.112519	-0.4464283	3.493293
C	4.819172	1.67005	5.5324
C	5.406651	1.076858	3.295362
C	3.776362	-0.3329198	3.563924
C	3.674396	0.8363479	4.600162
C	5.564897	2.073851	4.500919
H	5.678604	1.573928	2.319673
H	2.491759	0.9068322	4.568139
H	5.409692	3.173119	4.305792
H	5.317397	1.321838	6.427607
C	6.141768	-3.493083	9.049029
C	4.780101	-3.681745	8.714574
H	6.552601	-2.57663	9.533587
H	4.16668	-2.823373	8.228798
C	3.86057	-2.191532	1.778517
C	3.096033	-1.348328	2.6132
H	3.248566	-3.088832	1.449782
H	2.099604	-2.010583	2.745215
C	7.39794	-2.007598	12.28544
C	6.209498	-1.27528	12.09872
H	8.294704	-1.44628	12.29805
C	4.625105	-3.082869	10.57614
C	4.867699	-1.562577	11.27214
C	4.193157	-0.2536438	10.64481
C	3.116998	-0.5205073	9.484878
H	3.28677	-0.1125854	11.26812
H	3.326919	0.390882	8.864194
H	5.729081	-0.5687379	13.001
C	2.64548	-2.126279	9.351951
C	3.321977	-3.552112	9.638855
C	1.727668	-2.378229	8.053148
C	1.456525	-3.897412	7.779173
H	2.578884	-2.004563	7.410717
H	0.8612051	-3.923197	6.793695
C	2.528048	-4.808928	9.641819
C	1.889971	-5.389286	8.323668
H	2.305403	-5.288268	10.42999
H	1.680951	-5.668747	7.231173
78
Simulation Step: 1200 Simulation Time (ps): 1.2 PotentialEnergy: 1760.765 kcal/mol Positions: A
C	6.508784	-4.51906	5.908714
C	4.153651	-3.890109	7.17767
C	5.350557	-4.317666	5.560386
C	5.940349	-4.080336	7.402034
C	5.098799	-3.08237	7.235353
C	4.142716	-4.604021	6.060834
H	3.505384	-5.426521	5.589541
H	4.283383	-4.908124	7.684297
C	6.914287	-3.542793	4.910707
C	7.863633	-1.328052	5.204166
C	6.328398	-2.081992	4.858163
C	7.803574	-3.281044	5.810512
C	8.734017	-2.525389	5.232908
C	6.758054	-1.585235	5.926201
H	9.023101	-2.855069	4.186591
H	7.178281	-0.6180404	4.577057
C	6.732037	-2.805936	6.49565
C	5.483337	-3.031061	5.918499
H	6.837654	-2.17376	7.305293
H	4.497353	-2.481793	6.118784
C	5.852811	-0.7926662	4.806343
C	4.64642	0.9417866	6.735974
C	6.918247	-0.09140554	5.954757
C	4.384604	-0.5288389	5.024055
C	3.93616	0.7191426	5.38758
C	6.170187	0.5778312	7.046864
H	2.845088	0.9354011	5.271199
H	4.24436	1.850198	7.29329
C	4.173885	-1.069516	6.245579
C	5.631763	-1.005949	6.612411
H	3.375332	-1.825589	6.474131
H	5.862143	-0.7798518	7.877565
C	5.474767	-4.221513	8.829238
C	3.279135	-2.748516	8.725977
C	5.646417	-3.014759	9.34193
C	4.088673	-4.943994	8.973079
C	2.909052	-4.13906	8.498137
C	4.322221	-2.438754	9.483988
H	4.353787	-1.307662	9.72775
H	2.206549	-1.916399	8.670052
C	8.462605	-0.4990875	6.392736
C	11.57539	-2.139033	6.567712
C	9.705034	-0.5799505	5.561856
C	9.096803	-0.4923462	7.702482
C	10.64311	-1.108721	7.584392
C	10.78458	-1.78177	5.426168
H	9.905975	0.4832721	5.111885
H	11.12837	-0.800855	8.477688
H	11.13347	-1.727254	4.381586
H	12.26532	-3.063903	6.592165
C	6.296014	-2.088951	8.660808
C	5.552958	-2.000796	7.609704
H	6.886779	-1.303866	9.203176
H	4.724513	-1.606248	8.228663
C	7.117027	1.041611	8.252712
C	8.44842	0.4510462	8.544872
H	7.084301	2.155427	8.334701
H	8.659883	0.1585644	9.581643
C	2.325461	-4.923636	7.366602
C	2.310768	-6.395797	7.532246
H	2.077316	-4.750034	6.335092
C	3.868611	-6.380777	9.392406
C	2.536036	-7.048886	8.778535
C	2.580806	-8.512749	8.99091
C	3.800876	-9.210382	9.603198
H	1.595301	-9.293347	9.13966
H	4.059997	-10.11086	8.846432
H	1.417077	-6.664782	6.931887
C	4.544391	-8.374411	10.59552
C	4.622378	-7.039557	10.53399
C	5.314324	-8.919857	11.71103
C	5.99269	-7.88879	12.8856
H	5.394475	-10.02925	11.46048
H	5.569375	-8.503445	13.83663