78
Simulation Step: 100 Simulation Time (ps): 0.1 PotentialEnergy: 96.62013 kcal/mol Positions: A
C	-1.326613	-5.367955	3.048105
C	-2.849868	-7.199159	1.987653
C	-2.44498	-5.084732	2.356266
C	-0.8522837	-6.583371	2.981423
C	-1.797381	-7.501939	2.732433
C	-3.338247	-6.007213	2.255673
H	-4.403107	-5.803549	2.225851
H	-3.476843	-8.01869	1.592589
C	-0.6421721	-4.373268	3.617558
C	0.7632592	-2.309343	4.163607
C	0.2007803	-4.477086	4.670828
C	-0.707579	-3.299143	2.793676
C	0.09123877	-2.293178	3.032002
C	0.8490477	-3.367273	4.929109
H	0.2050585	-1.492804	2.214871
H	1.274648	-1.430638	4.610959
C	-1.446364	-3.255188	1.713298
C	-2.561444	-3.957151	1.724649
H	-0.8643185	-3.210469	0.7454778
H	-3.359081	-3.879881	0.950516
C	0.02505691	-5.277336	5.772917
C	0.2418184	-7.272438	7.412784
C	-1.115546	-5.987671	5.99691
C	1.086504	-5.349232	6.605378
C	1.298448	-6.49446	7.202772
C	-0.9381229	-7.024442	6.819192
H	2.288219	-6.823482	7.53221
H	0.3073259	-7.7151	8.440851
C	1.87296	-4.289186	6.775351
C	1.818373	-3.420687	5.799323
H	2.41188	-4.16244	7.718471
H	2.76197	-2.958857	5.550433
C	0.4392219	-6.983368	3.143772
C	2.746719	-7.93139	3.805297
C	0.5420845	-8.220074	3.714325
C	1.518288	-6.226967	2.810255
C	2.70486	-6.761097	3.167363
C	1.682014	-8.476173	4.325395
H	1.683898	-9.116059	5.270252
H	3.671115	-8.560793	3.633034
C	-2.359942	-5.548489	5.815741
C	-4.742059	-4.778526	5.533005
C	-2.443152	-4.276963	5.538771
C	-3.404489	-6.426198	5.934288
C	-4.705223	-6.064084	5.854453
C	-3.703184	-3.906425	5.253959
H	-1.526717	-3.671145	5.413838
H	-5.475097	-6.79067	5.709766
H	-3.873744	-2.866347	4.946338
H	-5.663435	-4.58671	4.986813
C	-0.5293883	-8.978261	3.835141
C	-1.574981	-8.731142	3.084555
H	-0.4687978	-9.773423	4.604993
H	-2.468598	-9.350859	3.101669
C	-1.899262	-7.931387	6.846242
C	-3.055779	-7.646521	6.260383
H	-1.693876	-8.939261	7.244379
H	-3.901516	-8.335178	6.420967
C	3.782167	-6.084128	3.10563
C	3.71346	-4.894565	2.514242
H	4.560985	-6.281433	3.898442
C	1.51594	-5.26123	1.865026
C	2.566443	-4.415213	2.012392
C	2.489858	-3.263881	1.368999
C	1.767564	-3.257972	0.2645463
H	3.036709	-2.348922	1.57459
H	1.836159	-2.336988	-0.3422883
H	4.632628	-4.591831	2.011232
C	0.9035016	-4.182423	-0.1031344
C	0.7623225	-5.220818	0.7903364
C	0.253314	-4.009195	-1.21453
C	-0.427226	-5.155329	-1.464038
H	0.1593933	-2.963339	-1.620133
H	-1.250415	-5.066872	-2.234304
C	-0.1389006	-6.173949	0.6906915
C	-0.6653247	-6.158604	-0.5241122
H	-0.395753	-6.928467	1.459906
H	-1.453231	-6.899375	-0.7181501
78
Simulation Step: 200 Simulation Time (ps): 0.2 PotentialEnergy: 73.78522 kcal/mol Positions: A
C	-1.289877	-5.392956	3.181365
C	-2.88469	-7.162408	2.265687
C	-2.428728	-4.941815	2.532132
C	-0.7907315	-6.592252	2.91438
C	-1.653991	-7.576697	2.686698
C	-3.304645	-5.918747	2.332052
H	-4.386165	-5.694841	2.113424
H	-3.694885	-7.945508	2.320773
C	-0.3446331	-4.486983	3.390383
C	0.8160189	-2.179962	4.059245
C	0.1657206	-4.314487	4.596592
C	-0.3565665	-3.464737	2.503936
C	0.3251176	-2.371682	2.829475
C	0.7084838	-3.124815	5.010749
H	0.2360427	-1.429016	2.253993
H	1.64149	-1.460973	4.074741
C	-1.241025	-3.329249	1.517329
C	-2.345044	-4.043284	1.529786
H	-1.415108	-2.301057	1.130541
H	-3.202132	-3.658636	0.9348914
C	0.1059304	-5.260504	5.501554
C	0.3163665	-7.265306	7.215107
C	-0.9585658	-5.973639	5.821185
C	1.207214	-5.314819	6.263861
C	1.267442	-6.312256	7.142161
C	-0.7684261	-7.150892	6.423497
H	1.827985	-6.145201	8.086522
H	0.09472509	-7.7579	8.175622
C	1.892194	-4.175159	6.477999
C	1.425554	-2.979951	6.13462
H	2.692305	-4.222415	7.266119
H	1.34462	-2.146565	6.89463
C	0.385879	-6.869186	3.428707
C	2.746701	-7.987441	3.705171
C	0.5025461	-8.137375	4.044412
C	1.423433	-6.239076	2.882613
C	2.632564	-6.778581	3.113039
C	1.731661	-8.548752	4.365527
H	1.900164	-9.611002	4.675741
H	3.784214	-8.205709	4.060634
C	-2.123872	-5.557332	5.335689
C	-4.588324	-4.579086	5.261773
C	-2.280868	-4.239748	5.103906
C	-3.178341	-6.339107	5.692291
C	-4.369974	-5.75835	5.855511
C	-3.527453	-3.736566	5.156801
H	-1.339491	-3.634605	4.976993
H	-5.2754	-6.417215	5.899941
H	-3.733412	-2.632135	5.229007
H	-5.614355	-4.119915	5.349801
C	-0.4827461	-9.022618	4.01518
C	-1.549661	-8.745419	3.314393
H	-0.2906615	-10.10163	4.102413
H	-1.957401	-9.676827	2.868541
C	-1.758256	-8.031935	6.540633
C	-2.942852	-7.565946	6.225695
H	-1.593579	-9.07322	6.916279
H	-3.773615	-8.298948	6.177001
C	3.729683	-5.973304	2.918256
C	3.524895	-4.685002	2.765859
H	4.732905	-6.33553	2.616237
C	1.320552	-5.152197	2.104513
C	2.421333	-4.372344	2.119511
C	2.274503	-3.163198	1.513614
C	1.445304	-3.172321	0.4909196
H	2.969373	-2.303436	1.649925
H	1.299714	-2.246865	-0.1540703
H	4.411301	-4.012675	2.581837
C	0.577197	-4.194057	0.2444338
C	0.4918146	-5.229784	1.085556
C	0.1907846	-4.395763	-0.9958487
C	-0.7572712	-5.300818	-1.135217
H	0.4899013	-3.64115	-1.77025
H	-0.9705867	-5.429208	-2.210958
C	-0.3636001	-6.263411	0.8725811
C	-1.027034	-6.341989	-0.288905
H	-0.339701	-7.135979	1.547354
H	-1.849854	-7.091329	-0.4793315
78
Simulation Step: 300 Simulation Time (ps): 0.3 PotentialEnergy: 69.51823 kcal/mol Positions: A
C	-0.981842	-5.430028	2.856991
C	-3.030387	-7.290238	2.651698
C	-2.083959	-5.156506	2.180002
C	-0.8859199	-6.61881	3.461973
C	-1.886757	-7.524537	3.349613
C	-3.108121	-6.045179	2.115367
H	-3.841249	-5.850126	1.322307
H	-3.855817	-8.031235	2.603562
C	-0.1191464	-4.344268	3.131378
C	0.9168445	-1.939599	3.911177
C	0.2889607	-4.182861	4.422653
C	-0.1631474	-3.210093	2.412343
C	0.6098119	-2.105182	2.628177
C	0.8077381	-2.990195	4.758443
H	1.1976	-1.722899	1.826519
H	0.8686399	-0.9024591	4.28828
C	-1.048416	-3.105525	1.434505
C	-1.977177	-4.060976	1.414185
H	-0.8976789	-2.406436	0.6269261
H	-2.833223	-3.944265	0.7794725
C	0.2607673	-5.215714	5.341093
C	0.4525672	-7.382255	6.833785
C	-0.8286207	-5.951611	5.532184
C	1.237469	-5.30368	6.233573
C	1.322593	-6.389322	7.065815
C	-0.5865915	-7.16453	6.0255
H	2.319701	-6.653443	7.446871
H	0.8082249	-8.407222	6.920325
C	1.841957	-4.112951	6.489935
C	1.466263	-2.95625	5.898239
H	2.395405	-4.04368	7.466401
H	1.657855	-1.970387	6.324666
C	0.4036548	-7.080209	3.510146
C	2.909021	-7.976601	3.895567
C	0.6462335	-8.261347	4.00545
C	1.452311	-6.35091	3.099387
C	2.726362	-6.712188	3.35099
C	1.880137	-8.634809	4.379445
H	1.899955	-9.129635	5.325513
H	3.833233	-8.121015	4.4452
C	-2.04071	-5.482773	5.189957
C	-4.470345	-4.325065	5.22072
C	-2.191024	-4.216696	4.776273
C	-3.104004	-6.130052	5.599325
C	-4.346266	-5.611572	5.579615
C	-3.411585	-3.67752	4.750267
H	-1.334526	-3.596981	4.531643
H	-5.240477	-6.278219	5.783602
H	-3.457654	-2.719963	4.235461
H	-5.034714	-3.722624	5.925238
C	-0.3846073	-9.115373	4.031734
C	-1.608527	-8.773252	3.627249
H	-0.282609	-9.842328	4.841176
H	-2.106297	-9.423754	2.9035
C	-1.657165	-7.87467	6.23391
C	-2.86347	-7.365989	6.057305
H	-1.519975	-8.925119	6.472032
H	-3.617226	-8.125987	5.891576
C	3.690226	-5.819974	3.228549
C	3.285203	-4.558854	2.999354
H	4.725936	-6.15343	3.172421
C	1.257857	-5.384314	2.217951
C	2.075476	-4.35869	2.404384
C	1.812581	-3.233505	1.724347
C	1.190424	-3.234192	0.5389518
H	2.508682	-2.465541	2.081074
H	1.288118	-2.358645	-0.1069736
H	3.584816	-3.824295	3.761899
C	0.3187774	-4.27403	0.3228843
C	0.3291875	-5.34207	1.233675
C	-0.3375974	-4.347023	-0.8427816
C	-1.135438	-5.405235	-0.9968309
H	-0.09922751	-3.674183	-1.650375
H	-1.682107	-5.521444	-1.925118
C	-0.6189818	-6.289101	1.16409
C	-1.318459	-6.317391	0.03675952
H	-0.7092482	-7.013933	1.97282
H	-1.918783	-7.18175	-0.2422539
78
Simulation Step: 400 Simulation Time (ps): 0.4 PotentialEnergy: 48.69601 kcal/mol Positions: A
C	-0.8635679	-5.341928	2.816912
C	-3.022093	-6.947296	3.135987
C	-1.770916	-5.352126	1.853571
C	-0.7708314	-6.473354	3.496632
C	-1.866149	-7.184783	3.847926
C	-2.898528	-6.104462	2.08993
H	-3.842471	-5.814879	1.623345
H	-3.726219	-7.77999	3.133319
C	-0.2115512	-4.270739	3.135664
C	1.077171	-2.096221	3.741733
C	0.4861193	-4.213498	4.257448
C	-0.4405434	-3.18022	2.402052
C	0.1452271	-2.074144	2.770931
C	1.316655	-3.168422	4.485516
H	0.4424417	-1.397776	1.931905
H	1.552349	-1.152646	4.089757
C	-1.034984	-3.202743	1.229014
C	-1.751763	-4.301811	0.9943333
H	-0.7671882	-2.453007	0.443199
H	-2.463351	-4.282169	0.1269718
C	0.2959625	-5.07341	5.260753
C	0.5587891	-7.350211	6.276686
C	-0.7866353	-5.852266	5.281768
C	1.226575	-5.131368	6.215402
C	1.366072	-6.36999	6.676872
C	-0.618294	-7.107795	5.706808
H	2.333014	-6.719561	7.066626
H	0.8994948	-8.414773	6.420565
C	2.086879	-4.150638	6.438193
C	2.107694	-3.121311	5.600996
H	2.560615	-4.143483	7.401077
H	2.817049	-2.300345	5.784905
C	0.4228718	-7.047603	3.564541
C	2.811378	-7.86797	4.060544
C	0.5704541	-8.290583	4.087387
C	1.424171	-6.356859	3.076293
C	2.620008	-6.654485	3.5714
C	1.821007	-8.743015	4.287352
H	2.088404	-9.616012	4.917579
H	3.760826	-8.062558	4.610591
C	-1.979933	-5.463167	4.90366
C	-4.337954	-4.263898	5.02072
C	-2.108848	-4.199594	4.465211
C	-3.019562	-6.119726	5.491032
C	-4.191757	-5.483932	5.562486
C	-3.24949	-3.57324	4.652104
H	-1.217671	-3.623599	4.125903
H	-4.915508	-5.830877	6.273215
H	-3.379171	-2.530417	4.349666
H	-5.161336	-3.637645	5.37869
C	-0.4879696	-9.063087	4.354321
C	-1.694391	-8.472087	4.245899
H	-0.4067724	-10.09785	3.962721
H	-2.519093	-9.061044	4.650296
C	-1.642618	-7.887692	6.118742
C	-2.869199	-7.379938	5.914549
H	-1.5204	-8.986639	6.235776
H	-3.786733	-7.940139	6.204112
C	3.426955	-5.584342	3.76471
C	3.168885	-4.39941	3.222731
H	4.084534	-5.558927	4.686647
C	1.291062	-5.332613	2.262987
C	2.090522	-4.286134	2.477445
C	1.968312	-3.256752	1.605462
C	1.037464	-3.365455	0.6463634
H	2.744476	-2.497365	1.531212
H	0.8358598	-2.433945	0.1000547
H	3.85867	-3.57078	3.285092
C	0.1857384	-4.366175	0.4924409
C	0.309947	-5.398881	1.333123
C	-0.7649475	-4.385893	-0.4271978
C	-1.576172	-5.452371	-0.5952996
H	-0.8213525	-3.511542	-1.106414
H	-2.576573	-5.203089	-1.011829
C	-0.4812411	-6.483423	1.135551
C	-1.546888	-6.370328	0.3424205
H	-0.1812088	-7.462725	1.581597
H	-2.368317	-7.066453	0.5386143
78
Simulation Step: 500 Simulation Time (ps): 0.5 PotentialEnergy: 47.73529 kcal/mol Positions: A
C	-1.148912	-5.3164	2.865604
C	-3.154589	-6.812444	3.310109
C	-2.314782	-5.048641	2.227689
C	-0.8857799	-6.564281	3.272048
C	-1.933125	-7.280532	3.523916
C	-3.281988	-5.923123	2.312804
H	-4.314555	-5.628114	1.972208
H	-4.044224	-7.424307	3.549223
C	-0.2509705	-4.306817	3.042147
C	1.321695	-2.22273	3.3874
C	0.5342374	-4.201192	4.146323
C	-0.4317796	-3.178775	2.353273
C	0.155214	-2.053615	2.79637
C	1.457514	-3.246918	4.263399
H	-0.4448551	-1.090375	2.915988
H	1.797206	-1.271681	3.612509
C	-1.420197	-3.104297	1.493841
C	-2.393426	-3.984269	1.478889
H	-1.433272	-2.261105	0.7703062
H	-3.075843	-3.98733	0.6131276
C	0.386972	-5.014543	5.172727
C	0.640443	-7.394184	6.174006
C	-0.6990535	-5.762179	5.40098
C	1.529686	-5.320807	5.774582
C	1.529255	-6.444479	6.464844
C	-0.5624796	-6.934999	5.963485
H	2.217867	-6.466998	7.337851
H	0.7606486	-8.385507	6.614522
C	2.518399	-4.397773	5.932131
C	2.475828	-3.348313	5.099124
H	3.218265	-4.397134	6.793656
H	3.265283	-2.549489	5.090436
C	0.3482648	-7.08534	3.485533
C	2.7684	-7.648132	4.551971
C	0.5375051	-8.072047	4.339408
C	1.449632	-6.36133	3.263996
C	2.549031	-6.449017	4.004608
C	1.791334	-8.545579	4.504194
H	1.905116	-9.588391	4.93491
H	3.677956	-7.86643	5.142466
C	-1.907368	-5.35797	4.989086
C	-4.393736	-4.329245	4.857007
C	-2.096136	-4.145569	4.463762
C	-3.006157	-6.006935	5.389946
C	-4.217483	-5.475851	5.50299
C	-3.353142	-3.731328	4.317978
H	-1.250255	-3.527114	4.159586
H	-5.091443	-6.158481	5.501829
H	-3.573094	-2.978252	3.521539
H	-5.453005	-4.075349	4.614094
C	-0.5413494	-8.652546	4.7772
C	-1.682191	-8.396002	4.160935
H	-0.4581939	-9.683136	5.163798
H	-2.581904	-9.001051	4.411654
C	-1.665999	-7.562531	6.314927
C	-2.84008	-7.220649	5.834855
H	-1.497035	-8.529335	6.801221
H	-3.733319	-7.870023	5.96493
C	3.378557	-5.420999	4.012868
C	3.139817	-4.33702	3.301682
H	3.930397	-5.317576	4.958437
C	1.530485	-5.537337	2.224089
C	2.265209	-4.44455	2.330389
C	2.036376	-3.380367	1.559513
C	1.059508	-3.431112	0.6220878
H	2.43156	-2.345595	1.815854
H	0.6473064	-2.413788	0.4405065
H	3.872485	-3.471239	3.385807
C	0.2619714	-4.467247	0.5502552
C	0.577109	-5.544413	1.287671
C	-0.712754	-4.507366	-0.4538652
C	-1.509688	-5.593578	-0.4537036
H	-0.8840874	-3.650008	-1.168266
H	-2.563992	-5.456929	-0.7957447
C	-0.2781458	-6.584492	1.26419
C	-1.283431	-6.572867	0.4151136
H	0.03536355	-7.528111	1.701075
H	-1.999301	-7.431636	0.4252787
78
Simulation Step: 600 Simulation Time (ps): 0.6 PotentialEnergy: 41.65134 kcal/mol Positions: A
C	-1.288778	-5.210604	2.967598
C	-3.237509	-7.036613	3.068721
C	-2.527622	-4.972923	2.676259
C	-1.012909	-6.450646	3.414359
C	-1.984645	-7.346952	3.487232
C	-3.551177	-5.758054	2.960448
H	-4.368218	-5.579282	2.272948
H	-3.851158	-7.812399	2.51524
C	-0.3095821	-4.336051	2.907911
C	1.275983	-2.26152	3.223136
C	0.4805043	-4.308901	3.957603
C	-0.5951255	-3.176453	2.351418
C	0.2931643	-2.203585	2.319631
C	1.430103	-3.362442	3.968382
H	0.3892744	-1.527852	1.487625
H	1.643763	-1.288322	3.607913
C	-1.807369	-2.950252	1.856034
C	-2.796342	-3.814684	2.09696
H	-2.030735	-2.095982	1.240805
H	-3.749799	-3.629408	1.621474
C	0.5180154	-5.26477	4.928063
C	0.5891544	-7.264622	6.7034
C	-0.6127774	-5.84269	5.35825
C	1.65914	-5.557112	5.575362
C	1.63397	-6.447225	6.59401
C	-0.5604761	-6.901431	6.181584
H	2.522567	-6.688859	7.178748
H	0.5580717	-8.021464	7.486637
C	2.666156	-4.715101	5.417245
C	2.590161	-3.669802	4.613852
H	3.466185	-4.787652	6.194376
H	3.526871	-3.1264	4.410967
C	0.2091908	-6.798032	3.751549
C	2.624216	-7.288486	5.005715
C	0.3639666	-7.825906	4.609287
C	1.299409	-6.048119	3.486056
C	2.459643	-6.19546	4.232604
C	1.504222	-7.982266	5.346981
H	1.516782	-8.620889	6.224702
H	3.621294	-7.657287	5.23819
C	-1.802332	-5.273984	5.155022
C	-4.194169	-4.304973	4.404325
C	-1.899884	-4.09613	4.463264
C	-2.89828	-5.940708	5.52099
C	-4.076019	-5.349911	5.232145
C	-3.094247	-3.656862	4.024014
H	-1.047314	-3.393874	4.472735
H	-5.044113	-5.818399	5.553046
H	-3.186763	-2.707857	3.484268
H	-5.154671	-3.989849	3.989117
C	-0.6432433	-8.6694	4.764698
C	-1.743833	-8.546537	4.048522
H	-0.3313906	-9.63373	5.149906
H	-2.497103	-9.347374	4.030935
C	-1.632843	-7.661608	6.453605
C	-2.762795	-7.215932	5.946435
H	-1.638652	-8.483153	7.181304
H	-3.614381	-7.670236	6.426726
C	3.528685	-5.488668	3.846174
C	3.371217	-4.455426	3.00353
H	4.369649	-5.441535	4.520353
C	1.34625	-5.272831	2.418783
C	2.270843	-4.358041	2.276966
C	2.096534	-3.331884	1.466719
C	1.185002	-3.471526	0.4786059
H	2.344328	-2.3316	1.854799
H	0.7530076	-2.531128	0.1143019
H	4.154276	-3.693506	2.829355
C	0.3162923	-4.472035	0.5319396
C	0.5888583	-5.50794	1.333774
C	-0.6872993	-4.532189	-0.3253507
C	-1.370825	-5.674375	-0.4457819
H	-0.6828759	-3.88352	-1.18993
H	-2.312881	-5.576236	-0.9571013
C	-0.0369653	-6.650283	1.089331
C	-1.189603	-6.650485	0.4307002
H	0.1510186	-7.557029	1.690685
H	-1.865477	-7.501139	0.3747173
78
Simulation Step: 700 Simulation Time (ps): 0.7 PotentialEnergy: 58.01553 kcal/mol Positions: A
C	-1.340222	-5.278807	3.195622
C	-3.135369	-7.237459	3.145209
C	-2.505546	-5.076445	2.544224
C	-1.016876	-6.538244	3.532064
C	-1.883582	-7.565622	3.431511
C	-3.342478	-6.078722	2.505758
H	-4.189058	-6.081479	1.786927
H	-4.000071	-7.879947	3.328817
C	-0.5071127	-4.228392	3.265348
C	1.484646	-2.628146	2.883791
C	0.5016924	-4.318493	4.086339
C	-0.7428191	-3.098731	2.560706
C	0.3357995	-2.427406	2.205229
C	1.535137	-3.505403	3.90456
H	0.2910109	-2.031878	1.180698
H	2.245485	-1.8292	2.90672
C	-1.954255	-2.925058	1.967903
C	-2.892238	-3.830312	2.217549
H	-2.004105	-2.310858	1.034905
H	-3.893165	-3.536766	2.603733
C	0.5194688	-5.143015	5.126714
C	0.3933711	-6.653986	7.251644
C	-0.6053756	-5.807846	5.426286
C	1.596693	-5.269952	5.881938
C	1.430077	-5.868111	7.022231
C	-0.5836767	-6.729732	6.369328
H	2.221874	-5.891693	7.78168
H	0.3068116	-7.115265	8.27382
C	2.749846	-4.706439	5.518713
C	2.648271	-3.737864	4.604087
H	3.67661	-5.279406	5.611208
H	3.570268	-3.524549	4.066824
C	0.2372331	-6.830862	3.792303
C	2.559782	-7.155939	4.931508
C	0.3845259	-7.830834	4.67452
C	1.298681	-6.160134	3.330242
C	2.484974	-6.425625	3.824662
C	1.510998	-7.838503	5.352992
H	1.494861	-8.057278	6.42988
H	3.511499	-7.709253	5.003159
C	-1.795113	-5.271311	5.130169
C	-4.215597	-4.638505	4.123863
C	-2.057954	-4.015158	4.728833
C	-2.912289	-5.939629	5.446182
C	-4.115217	-5.706048	4.91328
C	-3.302032	-3.685658	4.396489
H	-1.281506	-3.218808	4.638429
H	-4.964828	-5.925928	5.545003
H	-3.578377	-2.633415	4.353734
H	-5.235	-4.207181	4.155532
C	-0.4782464	-8.847577	4.699505
C	-1.707409	-8.592041	4.278834
H	-0.171668	-9.895922	4.911324
H	-2.577172	-9.217311	4.488689
C	-1.583478	-7.538055	6.531916
C	-2.76449	-7.051349	6.173298
H	-1.444119	-8.582672	6.896811
H	-3.700355	-7.549237	6.509674
C	3.529752	-5.761093	3.332702
C	3.360967	-4.804856	2.464109
H	4.551918	-6.171108	3.573544
C	1.139835	-5.319023	2.312302
C	2.131539	-4.422699	2.190728
C	2.119517	-3.369964	1.396791
C	1.212235	-3.413774	0.4252047
H	2.577601	-2.427344	1.658084
H	1.245649	-2.606915	-0.3223341
H	4.213788	-4.321511	2.029841
C	0.1363932	-4.239336	0.5277493
C	0.1255615	-5.273162	1.375456
C	-0.7821992	-4.203497	-0.4796489
C	-1.406657	-5.250526	-0.9765339
H	-0.797897	-3.299839	-1.136018
H	-2.497965	-5.250359	-1.189894
C	-0.4144541	-6.383975	0.827572
C	-0.9264168	-6.380222	-0.4652007
H	-0.5334328	-7.301617	1.45417
H	-0.6863105	-7.180743	-1.181913
78
Simulation Step: 800 Simulation Time (ps): 0.8 PotentialEnergy: 65.60748 kcal/mol Positions: A
C	-1.491082	-5.287135	2.932987
C	-3.332152	-7.181719	2.959484
C	-2.643476	-5.080814	2.347711
C	-1.150083	-6.539915	3.221584
C	-2.16377	-7.326092	3.591935
C	-3.59194	-6.003985	2.392548
H	-4.591818	-5.761156	2.003127
H	-4.178257	-7.755703	3.340886
C	-0.7544142	-4.26569	3.311714
C	1.35509	-2.572019	3.097806
C	0.3187738	-4.333813	4.15261
C	-0.8141654	-3.177814	2.538511
C	0.1836246	-2.273035	2.523291
C	1.437354	-3.691369	3.837079
H	-0.05204636	-1.182545	2.374859
H	2.237387	-1.962094	2.899232
C	-1.943722	-2.965404	1.902802
C	-2.815943	-3.922605	1.743654
H	-2.337106	-1.932932	1.856003
H	-3.803094	-3.733905	1.291121
C	0.322888	-4.951738	5.347807
C	0.241978	-6.423337	7.541227
C	-0.8125458	-5.458984	5.781041
C	1.325611	-4.855005	6.201144
C	1.29288	-5.631381	7.29384
C	-0.8035665	-6.346021	6.750944
H	2.102068	-5.522271	8.054828
H	0.215718	-6.977046	8.481168
C	2.509912	-4.561628	5.685142
C	2.602464	-4.011079	4.447728
H	3.401658	-4.514074	6.352899
H	3.591244	-3.963471	3.92274
C	0.09967701	-7.022825	3.168466
C	2.230943	-6.798813	4.408224
C	0.3802965	-8.034352	4.032216
C	1.132181	-6.47372	2.45853
C	2.286351	-6.632693	3.08744
C	1.46452	-7.816104	4.764376
H	1.934416	-8.665064	5.317621
H	2.9964	-6.439534	5.130455
C	-1.881113	-5.064342	5.167943
C	-4.356617	-3.957957	4.849911
C	-2.060602	-3.775266	4.910789
C	-2.97401	-5.813369	5.236346
C	-4.128306	-5.281291	4.740634
C	-3.252413	-3.2869	4.542319
H	-1.193803	-3.118322	4.849868
H	-4.908792	-5.949485	4.362467
H	-3.290918	-2.601213	3.648016
H	-4.782569	-3.681608	5.84631
C	-0.6608862	-8.617276	4.701901
C	-1.89651	-8.462269	4.266258
H	-0.4627866	-9.056273	5.704515
H	-2.634673	-9.292689	4.422373
C	-1.825458	-7.225923	6.787814
C	-2.867748	-6.980384	5.937216
H	-1.610261	-8.244773	7.165244
H	-3.343236	-7.87922	5.468193
C	3.365824	-5.985278	2.653981
C	3.336178	-5.064116	1.706712
H	4.239727	-5.904569	3.3213
C	1.170812	-5.729201	1.328761
C	2.17854	-4.878689	1.133884
C	1.887951	-3.653864	0.769294
C	0.6362228	-3.275436	0.814761
H	2.694108	-2.893746	0.6005814
H	0.394464	-2.244774	1.092009
H	4.013727	-4.164656	1.78496
C	-0.3063789	-4.141548	0.5402668
C	0.08439235	-5.43058	0.5407674
C	-1.233021	-3.735959	-0.359788
C	-1.306563	-4.42308	-1.495405
H	-2.227528	-3.531149	0.08779131
H	-1.644333	-3.958275	-2.464926
C	-0.2883696	-6.175764	-0.4753732
C	-1.303807	-5.68824	-1.209777
H	-0.005187539	-7.225852	-0.4966208
H	-2.093094	-6.386879	-1.540748
78
Simulation Step: 900 Simulation Time (ps): 0.9 PotentialEnergy: 421.3314 kcal/mol Positions: A
C	-1.531728	-5.218029	2.528812
C	-3.572778	-6.889746	2.8479
C	-2.710323	-4.815765	2.150357
C	-1.384201	-6.514048	2.704449
C	-2.352646	-7.294302	3.148802
C	-3.736901	-5.597659	2.481517
H	-4.719463	-5.123274	2.529239
H	-4.443185	-7.541041	3.08927
C	-0.5714355	-4.351045	2.847865
C	1.371548	-2.635475	3.274859
C	0.3212809	-4.579323	3.807368
C	-0.8046868	-3.04532	2.675778
C	0.1165763	-2.190751	3.139786
C	1.495461	-3.887564	3.692791
H	0.03908334	-1.147787	2.832039
H	2.239815	-2.039504	2.928129
C	-2.074343	-2.700826	2.462132
C	-2.818287	-3.548999	1.742481
H	-2.507018	-1.816098	2.921061
H	-2.867921	-3.433286	0.6555358
C	-0.09282228	-4.814188	5.067387
C	-0.3263357	-6.148779	7.309706
C	-1.404129	-4.855243	5.603367
C	0.9895563	-5.078654	5.845127
C	0.8871865	-5.768806	6.967368
C	-1.376459	-5.716614	6.64877
H	1.585274	-5.595396	7.786845
H	-0.5018162	-7.012833	7.960171
C	2.146068	-4.402905	5.731024
C	2.538837	-4.132174	4.501451
H	2.439061	-3.700343	6.530623
H	3.398911	-3.440037	4.394534
C	-0.1857148	-6.969254	2.426342
C	2.170947	-6.810575	3.527252
C	0.2130713	-7.800026	3.459079
C	0.6460934	-6.063426	1.767323
C	1.878941	-6.266124	2.329571
C	1.390766	-7.744656	4.050116
H	1.466718	-7.930445	5.126078
H	2.950476	-6.319282	4.116114
C	-2.800701	-4.665451	5.143898
C	-4.897977	-5.051431	6.988357
C	-3.721599	-3.601698	5.342662
C	-3.574044	-5.797446	5.178737
C	-4.799257	-5.87994	5.831771
C	-4.858537	-3.78608	6.20047
H	-3.534811	-2.654335	4.803629
H	-5.126586	-6.951237	5.927916
H	-5.777679	-3.190956	5.908313
H	-5.587554	-5.263644	7.844184
C	-0.6831673	-8.558981	4.072224
C	-1.976547	-8.298019	3.962217
H	-0.3948897	-9.553328	4.405348
H	-2.735528	-8.802134	4.571661
C	-2.182762	-6.743475	6.553317
C	-2.866631	-6.928821	5.439218
H	-1.761464	-7.675796	6.927863
H	-3.407857	-7.880463	5.335859
C	2.95266	-6.079463	1.579827
C	2.736224	-5.724532	0.3410903
H	3.795326	-6.722597	1.785458
C	0.5797244	-5.240254	0.3991828
C	1.768589	-4.822597	0.3083314
C	1.61286	-3.59066	0.8851164
C	0.4642136	-3.17604	1.526123
H	2.522862	-3.071477	1.190769
H	0.6205949	-2.141847	1.863344
H	3.567183	-5.709259	-0.3907555
C	-0.4981585	-3.292058	0.6401882
C	0.2372949	-3.964088	-0.2240422
C	-0.8478289	-2.088273	0.2285341
C	0.3584266	-1.148652	0.03888669
H	-1.935769	-2.118526	-0.0321981
H	0.1269084	-0.4816315	-0.8962141
C	1.516282	-2.991469	-0.5374008
C	1.858372	-1.720014	0.02097249
H	2.285558	-3.206632	-1.278803
H	2.548047	-1.244815	-0.6662726
78
Simulation Step: 1000 Simulation Time (ps): 1 PotentialEnergy: 1212.676 kcal/mol Positions: A
C	-2.227258	-4.29242	2.245372
C	-3.449142	-6.258312	2.416557
C	-3.494094	-4.051225	1.956665
C	-1.499408	-5.309601	1.623135
C	-2.309467	-6.443177	1.766405
C	-4.091055	-5.104538	2.437317
H	-5.139799	-5.064864	2.78965
H	-3.554383	-6.81129	3.359792
C	-2.067386	-3.812208	3.538894
C	0.2168789	-2.876185	3.862145
C	-1.232605	-4.302549	4.592927
C	-1.910151	-2.493407	3.302976
C	-0.6436277	-2.035426	3.30574
C	-0.05702396	-4.136245	4.021494
H	-0.3983155	-0.9825272	3.068996
H	1.025216	-2.458448	4.491387
C	-2.964685	-1.938301	2.689691
C	-3.891673	-2.868565	2.461449
H	-3.273449	-0.9236976	3.017719
H	-4.951065	-2.642123	2.685909
C	-1.052636	-4.351312	5.99071
C	0.03349647	-6.525749	6.915162
C	-1.635156	-5.502109	6.491964
C	0.2002434	-4.158225	6.510402
C	0.7379366	-5.414971	6.954567
C	-1.01618	-6.595967	5.992813
H	1.811054	-5.586884	6.678473
H	-0.2807385	-6.031416	7.714442
C	1.019254	-3.566569	5.611845
C	0.9340351	-4.49483	4.712743
H	1.976407	-3.127154	5.926408
H	1.811503	-4.964279	4.256821
C	-0.0829289	-5.461018	1.484016
C	1.895679	-6.657861	2.549753
C	-0.08560165	-6.711253	1.945965
C	1.463546	-5.118333	1.03321
C	1.977671	-6.404663	1.2563
C	0.6855407	-6.784904	2.969745
H	0.3210819	-6.883152	4.011018
H	2.41636	-5.998015	3.302072
C	-1.653746	-5.61184	8.135381
C	0.4752837	-4.041185	8.542558
C	-1.552207	-4.631786	9.127548
C	-0.8237494	-6.602407	8.602461
C	0.4277148	-5.678911	8.959909
C	-0.4733867	-3.833852	9.36269
H	-2.454116	-4.185575	9.557696
H	1.177328	-5.94383	9.796935
H	-0.1650208	-3.218561	10.24423
H	1.360783	-3.379923	8.302925
C	-0.7306987	-7.785048	1.603013
C	-1.936007	-7.686079	2.049028
H	-0.3114853	-8.644133	1.058162
H	-2.076068	-8.00781	3.080431
C	-1.682919	-7.775205	6.358902
C	-1.42434	-7.850657	7.88402
H	-2.735509	-8.013696	6.246844
H	-2.445808	-7.870059	8.355752
C	3.202877	-6.663428	1.287441
C	3.518631	-5.593106	2.2073
H	3.228936	-6.884562	0.2241666
C	2.797644	-4.220806	1.197164
C	3.058781	-4.324307	2.422597
C	3.749456	-3.203893	2.691059
C	5.095493	-3.358745	2.297978
H	3.391592	-2.604817	3.588747
H	5.576774	-2.580705	1.56774
H	3.249079	-5.423914	1.151047
C	5.280935	-4.646374	1.883633
C	4.345116	-4.932089	0.8277171
C	5.910098	-5.92691	2.394302
C	5.365088	-7.424104	1.962012
H	6.82441	-5.883739	3.032428
H	6.045336	-8.22086	2.303557
C	4.440744	-6.392632	0.4392177
C	4.192254	-7.804681	1.018424
H	4.918918	-6.599302	-0.4894677
H	4.45693	-8.572182	0.2738367
78
Simulation Step: 1100 Simulation Time (ps): 1.1 PotentialEnergy: 1543.405 kcal/mol Positions: A
C	-1.59799	-4.349266	3.329834
C	-2.683272	-5.523592	1.396765
C	-2.644421	-3.754333	2.538393
C	-0.6404829	-4.951796	2.518075
C	-1.374436	-5.243413	1.344612
C	-3.399679	-4.498275	1.773191
H	-3.977597	-4.060339	0.935945
H	-3.074708	-6.245186	0.6790566
C	-1.463801	-3.574133	4.496353
C	-0.4702295	-2.331706	3.044834
C	-0.3297198	-3.067466	4.993966
C	-2.375693	-2.670122	4.352738
C	-1.806821	-1.885038	3.383446
C	0.4700495	-2.789177	4.028982
H	-2.469116	-1.070454	2.809633
H	-0.4488234	-3.014206	2.190164
C	-3.583767	-2.711476	4.032381
C	-3.372097	-2.643372	2.720586
H	-4.02243	-3.688747	4.258183
H	-3.09278	-1.921503	2.003105
C	0.1626032	-3.859287	5.925884
C	2.036557	-4.420367	7.858027
C	0.2658052	-2.856118	6.995058
C	0.7543794	-5.09341	5.76525
C	0.943472	-5.391408	7.217321
C	1.687628	-2.825486	7.358406
H	-0.1203938	-5.653007	7.681378
H	3.061021	-4.847422	8.028646
C	1.631774	-5.089567	4.692194
C	1.579117	-3.768447	4.046935
H	2.517978	-5.699803	4.470098
H	2.471516	-3.151317	4.34584
C	0.5060756	-5.643025	2.529783
C	0.4439296	-7.270357	3.890537
C	-0.07162399	-6.559491	1.90732
C	1.559633	-6.416035	2.565911
C	1.482529	-6.543141	3.84645
C	0.09829108	-7.688269	2.639265
H	-0.4863327	-8.590338	2.641181
H	-0.4460165	-6.81499	4.405497
C	-0.7854009	-1.597696	6.803278
C	-3.786595	-1.768453	5.72489
C	-2.121122	-0.65414	7.027307
C	-0.6313046	-1.2593	5.499687
C	-2.237918	-1.515187	5.16605
C	-3.548325	-0.6789458	6.788661
H	-2.146349	0.2373074	7.727857
H	-2.973218	-0.8572745	4.483498
H	-4.266857	0.09948751	6.998073
H	-4.604206	-1.747868	5.015566
C	0.1595649	-6.186429	0.7461354
C	-0.7525424	-5.499806	0.2107509
H	1.347574	-5.861463	0.8160246
H	-0.6725872	-4.737828	-0.5730107
C	2.237866	-1.872217	6.359846
C	1.012975	-1.296752	5.412217
H	3.420811	-1.56277	6.762986
H	1.335373	-1.209724	4.355361
C	2.521636	-7.359464	4.02185
C	2.540491	-8.371087	2.879521
H	3.421182	-6.669026	4.262059
C	1.259525	-7.489804	1.392151
C	1.440417	-8.670646	1.899776
C	0.8182779	-9.725508	1.238148
C	0.4992881	-9.206477	-0.08181348
H	1.465572	-10.75139	1.187918
H	1.567502	-9.615128	-0.3964489
H	3.633336	-8.452298	2.537289
C	0.0309721	-7.849733	-0.8787379
C	0.8175007	-6.977118	-0.1613843
C	-0.919579	-7.010131	-2.091577
C	-0.8052458	-5.429122	-2.619959
H	-1.760024	-7.566434	-2.566385
H	-1.695503	-4.943713	-3.024277
C	0.6638736	-5.495163	-0.6853243
C	0.2929167	-4.383294	-2.001101
H	1.317872	-4.740211	-0.1688365
H	0.8565956	-3.76124	-2.734394
78
Simulation Step: 1200 Simulation Time (ps): 1.2 PotentialEnergy: 1032.929 kcal/mol Positions: A
C	-1.688769	-5.29348	3.637645
C	-2.562984	-4.047792	1.927351
C	-3.097397	-5.213981	3.545075
C	-0.8018773	-5.271696	2.36772
C	-1.298786	-4.387303	1.462054
C	-3.361541	-5.070171	2.229504
H	-3.033502	-5.767406	1.476181
H	-2.113382	-3.394378	2.750382
C	-1.259957	-4.077429	4.637976
C	0.4334604	-3.279597	4.199719
C	-0.8319776	-3.220284	5.800322
C	-1.613544	-3.091882	3.969021
C	-0.4578771	-2.594169	3.589471
C	0.4724589	-2.870955	5.560386
H	0.007350756	-1.743036	2.976709
H	1.440965	-3.308956	3.625069
C	-2.800022	-2.940805	3.74342
C	-3.464527	-4.014813	4.127441
H	-3.002807	-2.552663	2.6615
H	-4.509327	-3.858003	4.135381
C	-1.648225	-2.149325	5.733152
C	-3.520113	-0.429493	4.020661
C	-3.059268	-2.229904	5.801697
C	-1.20654	-0.9124166	4.879847
C	-2.011012	-0.08425498	4.193943
C	-4.135933	-1.336147	4.982944
H	-1.734085	0.9744864	3.985674
H	-4.239231	0.3493809	3.643981
C	0.2089916	-0.7248189	4.803338
C	0.6676326	-1.381203	5.882636
H	0.7715943	-1.10654	3.741896
H	0.667853	-0.4197889	6.463201
C	-0.6676711	-6.48293	1.789839
C	-1.779927	-8.894952	0.5351143
C	-1.937635	-6.660225	1.443865
C	-0.1455385	-7.085665	0.5037109
C	-1.231141	-7.885321	-0.2390951
C	-2.090528	-8.145109	1.583561
H	-1.475022	-8.42046	2.433671
H	-1.154606	-9.837948	0.5965824
C	-3.340857	-3.142117	6.688755
C	-3.040383	-5.17096	8.512946
C	-2.2795	-3.279738	7.822772
C	-4.607784	-3.694713	6.802068
C	-4.502563	-4.758267	7.885034
C	-1.949568	-4.363348	8.658875
H	-1.844979	-2.369411	8.320556
H	-5.247952	-5.273154	8.429703