78
Simulation Step: 100 Simulation Time (ps): 0.1 PotentialEnergy: 87.3737 kcal/mol Positions: A
C	-5.286898	7.797356	-5.113167
C	-3.449342	6.5172	-3.840986
C	-4.315279	8.475243	-4.523322
C	-5.521322	6.564294	-4.737697
C	-4.477837	5.892724	-4.363274
C	-3.503012	7.82105	-3.701931
H	-2.830765	8.415286	-3.022556
H	-2.92885	5.931766	-3.040586
C	-6.098028	8.423628	-6.008675
C	-7.545255	9.956942	-7.632854
C	-6.595819	7.838691	-7.149882
C	-5.957996	9.750497	-5.999747
C	-6.796274	10.49848	-6.688383
C	-7.491603	8.633533	-7.767727
H	-7.22422	11.41419	-6.185483
H	-7.720199	10.51335	-8.606026
C	-5.278571	10.48543	-5.126471
C	-4.409774	9.799708	-4.359633
H	-5.885977	11.28831	-4.629865
H	-3.553064	10.32226	-3.894972
C	-6.417964	6.587381	-7.617689
C	-6.289054	4.229006	-8.69286
C	-5.164657	6.126024	-7.916954
C	-7.50072	6.009489	-8.158613
C	-7.511387	4.732801	-8.44292
C	-5.157854	4.847543	-8.301468
H	-8.432419	4.086268	-8.446762
H	-6.19462	3.146751	-8.861342
C	-8.583428	6.753669	-8.428478
C	-8.612375	8.024453	-8.111431
H	-9.250785	6.28863	-9.181102
H	-9.427605	8.234157	-7.429962
C	-6.704478	5.963215	-4.766101
C	-8.910061	4.588867	-5.167611
C	-6.679602	4.610967	-4.65894
C	-7.865873	6.601689	-4.681867
C	-8.886491	5.931477	-5.244994
C	-7.780313	3.925614	-4.890606
H	-7.687616	2.824108	-4.93888
H	-9.939211	4.122121	-5.158512
C	-4.02325	6.799746	-7.751753
C	-1.789622	8.002098	-7.551174
C	-4.106616	8.095387	-7.964276
C	-2.837718	6.161683	-7.603601
C	-1.626921	6.668763	-7.603282
C	-2.977536	8.742395	-7.798043
H	-5.04111	8.514885	-8.365108
H	-0.7952635	6.125659	-8.142707
H	-2.937157	9.815089	-8.108284
H	-0.9009815	8.665174	-7.436085
C	-5.561893	3.908616	-4.542104
C	-4.418125	4.579763	-4.57828
H	-5.608333	2.816601	-4.377566
H	-3.454183	4.147163	-4.89747
C	-4.005075	4.231221	-8.22298
C	-2.926448	4.860212	-7.805672
H	-3.896686	3.195278	-8.67697
H	-2.324453	4.334373	-7.039276
C	-9.966791	6.565099	-5.595106
C	-10.10921	7.843295	-5.177891
H	-10.73101	6.155843	-6.291872
C	-8.114842	7.680977	-3.915389
C	-9.15845	8.386674	-4.35577
C	-9.297981	9.556674	-3.756421
C	-8.31053	10.06432	-3.038723
H	-10.20693	10.14623	-4.016216
H	-8.366957	11.11572	-2.747702
H	-11.15896	8.314677	-5.123251
C	-7.544506	9.301999	-2.33141
C	-7.328415	8.07752	-2.883381
C	-7.198014	9.618526	-1.113338
C	-6.280475	8.760534	-0.7007848
H	-7.896721	10.28735	-0.5838667
H	-6.026063	8.815567	0.3820768
C	-6.364248	7.248703	-2.542576
C	-5.931959	7.575037	-1.317213
H	-6.216218	6.260335	-3.042426
H	-5.175426	6.86069	-0.8882582
78
Simulation Step: 200 Simulation Time (ps): 0.2 PotentialEnergy: 76.94233 kcal/mol Positions: A
C	-5.394684	7.782555	-5.154681
C	-3.343828	6.643415	-3.95411
C	-4.544264	8.472871	-4.295185
C	-5.337031	6.493438	-5.283613
C	-4.260309	5.988722	-4.671342
C	-3.447938	7.960031	-3.803524
H	-2.508315	8.532888	-3.777356
H	-2.39528	6.151824	-3.700866
C	-6.007333	8.486792	-6.098149
C	-7.318027	9.773754	-7.974414
C	-6.677628	7.831115	-7.01
C	-6.078851	9.814119	-6.003127
C	-6.544041	10.44789	-7.093848
C	-7.598339	8.510066	-7.740903
H	-6.197126	11.44111	-7.403701
H	-7.945341	10.3824	-8.631699
C	-5.323334	10.40915	-5.068324
C	-4.690945	9.759165	-4.077605
H	-5.338674	11.50105	-4.906899
H	-3.852709	10.33948	-3.638719
C	-6.430104	6.571076	-7.223211
C	-6.253276	4.208365	-8.362009
C	-5.216712	6.139221	-7.638743
C	-7.530799	5.942941	-7.510393
C	-7.435408	4.729193	-8.018795
C	-5.139318	4.829703	-8.013592
H	-8.308796	4.068592	-8.073116
H	-6.292723	3.685046	-9.343565
C	-8.660698	6.636165	-7.800739
C	-8.650006	7.910915	-8.247659
H	-9.629408	6.120821	-7.697761
H	-9.419519	8.339359	-8.959076
C	-6.50354	5.977485	-5.011239
C	-8.718584	4.694809	-5.337605
C	-6.598687	4.704064	-4.669864
C	-7.587829	6.729167	-5.005488
C	-8.670828	6.048461	-5.424938
C	-7.704629	4.022943	-4.844803
H	-7.798241	2.924452	-4.729805
H	-9.445183	4.149403	-5.957952
C	-4.214608	6.975315	-7.414029
C	-2.026194	8.352309	-7.607071
C	-4.336015	8.331283	-7.456316
C	-3.002429	6.298426	-7.478699
C	-1.949595	7.068337	-7.166302
C	-3.19463	9.072207	-7.536516
H	-5.310126	8.79526	-7.783719
H	-0.9300006	6.647408	-7.152019
H	-3.183248	10.18267	-7.417412
H	-1.0356	8.842796	-7.688037
C	-5.472203	4.073882	-4.506349
C	-4.267263	4.671808	-4.548051
H	-5.422797	2.964245	-4.502668
H	-3.57767	4.217038	-3.810328
C	-3.96315	4.170786	-7.941849
C	-2.886907	4.939276	-7.850651
H	-3.907422	3.195992	-7.432023
H	-1.921795	4.489766	-8.164138
C	-9.785481	6.717634	-5.686355
C	-9.829319	7.989363	-5.270065
H	-10.69292	6.315914	-6.174067
C	-7.707116	7.855806	-4.317812
C	-8.842412	8.555974	-4.559602
C	-9.004016	9.786171	-4.102452
C	-8.463432	9.938387	-2.918589
H	-9.51227	10.59964	-4.639951
H	-9.131633	10.45654	-2.190242
H	-10.80796	8.503724	-5.411664
C	-7.69312	8.949513	-2.402395
C	-7.072234	8.044208	-3.199496
C	-7.166983	9.092661	-1.185605
C	-6.371627	8.123281	-0.6896868
H	-7.009039	10.13212	-0.8212676
H	-5.812587	8.415142	0.225825
C	-6.259232	7.053852	-2.737742
C	-5.839922	7.149772	-1.473797
H	-6.10403	6.171025	-3.367701
H	-5.030498	6.491716	-1.115878
78
Simulation Step: 300 Simulation Time (ps): 0.3 PotentialEnergy: 64.20375 kcal/mol Positions: A
C	-5.297984	7.987804	-5.068547
C	-3.119697	6.751911	-4.106174
C	-4.426889	8.694144	-4.39853
C	-5.236807	6.621559	-4.990558
C	-4.231346	5.997994	-4.346052
C	-3.367572	8.062235	-3.856677
H	-3.064964	8.418836	-2.873157
H	-2.1625	6.507185	-4.597779
C	-5.891492	8.659324	-6.109662
C	-7.513194	9.899743	-7.703364
C	-6.767104	7.941744	-6.849622
C	-5.794737	10.01304	-6.202518
C	-6.495127	10.59035	-7.158456
C	-7.730677	8.593577	-7.47726
H	-5.943017	11.28987	-7.793293
H	-8.118382	10.36089	-8.482771
C	-5.363458	10.70219	-5.136537
C	-4.684049	9.999403	-4.20145
H	-5.310591	11.78954	-5.18238
H	-4.521163	10.46728	-3.223295
C	-6.602926	6.596967	-7.063525
C	-6.156773	4.050625	-7.832235
C	-5.344453	6.072052	-7.06805
C	-7.580801	5.825579	-7.651885
C	-7.426115	4.50818	-7.87597
C	-5.177531	4.866737	-7.554444
H	-8.253652	3.814043	-7.928968
H	-5.942785	2.997903	-8.048876
C	-8.710636	6.52755	-8.028688
C	-8.780124	7.869082	-7.913885
H	-9.694216	6.051133	-7.881783
H	-9.343526	8.303155	-8.768079
C	-6.418553	5.962931	-5.237789
C	-8.674611	4.68169	-5.661541
C	-6.401925	4.671619	-5.092869
C	-7.5977	6.644373	-5.185437
C	-8.724602	6.042323	-5.560488
C	-7.559524	4.048453	-5.259706
H	-7.414678	3.065006	-5.705829
H	-9.34962	4.119184	-6.323052
C	-4.295697	6.897512	-7.155782
C	-2.202449	8.537994	-7.168028
C	-4.536628	8.181552	-7.305502
C	-3.024096	6.510457	-7.303397
C	-1.941528	7.269396	-7.280467
C	-3.501289	9.003826	-7.167988
H	-5.476199	8.533811	-7.733948
H	-0.9452121	6.841978	-7.400119
H	-3.607395	10.0739	-6.998713
H	-1.601535	9.130032	-6.47411
C	-5.35305	4.043861	-4.459797
C	-4.158465	4.666628	-4.254684
H	-5.543233	3.03514	-4.096814
H	-3.242643	4.104642	-4.44542
C	-3.944537	4.508112	-7.852367
C	-2.879471	5.201859	-7.444631
H	-3.749852	3.547091	-8.30429
H	-2.187815	4.752905	-6.729852
C	-9.850284	6.818071	-5.690088
C	-9.662337	8.152398	-5.622351
H	-10.84284	6.343881	-5.624009
C	-7.618315	7.836857	-4.569229
C	-8.601987	8.638524	-4.921504
C	-8.925686	9.556002	-4.001067
C	-8.23644	9.700507	-2.908388
H	-9.498816	10.40365	-4.416703
H	-8.785604	10.25913	-2.15837
H	-10.12405	8.771804	-6.385666
C	-7.514246	8.706305	-2.406711
C	-7.038786	7.883676	-3.348121
C	-7.021053	8.830494	-1.175529
C	-6.329718	7.774732	-0.69965
H	-7.274249	9.683205	-0.5239248
H	-6.085811	7.712527	0.3565722
C	-6.348563	6.839397	-2.859528
C	-6.002336	6.780869	-1.564442
H	-6.228455	5.942927	-3.508117
H	-5.159191	6.150083	-1.282036
78
Simulation Step: 400 Simulation Time (ps): 0.4 PotentialEnergy: 46.61423 kcal/mol Positions: A
C	-5.245296	8.002312	-5.125474
C	-3.361676	6.803413	-3.686524
C	-4.233578	8.703789	-4.55165
C	-5.248574	6.697334	-5.05233
C	-4.28984	6.103451	-4.308341
C	-3.252591	8.115931	-3.881823
H	-2.737663	8.734718	-3.122969
H	-2.564915	6.217259	-3.15483
C	-6.172743	8.651451	-5.821152
C	-7.862247	9.888534	-7.440176
C	-6.863412	7.928604	-6.707956
C	-5.999674	9.905864	-6.094782
C	-6.98168	10.55795	-6.696585
C	-7.879503	8.577723	-7.320144
H	-6.856427	11.65318	-6.903797
H	-8.727448	10.39164	-7.925155
C	-5.064719	10.63076	-5.478288
C	-4.194451	10.02342	-4.635097
H	-4.771062	11.64346	-5.849532
H	-3.60955	10.59187	-3.886877
C	-6.626785	6.687408	-7.070635
C	-6.168928	4.067671	-7.399109
C	-5.363648	6.235712	-7.137829
C	-7.609498	5.928976	-7.483869
C	-7.380167	4.577177	-7.678101
C	-5.15076	4.904358	-7.343072
H	-7.9594	4.075308	-8.510723
H	-6.004797	3.006847	-7.124092
C	-8.70537	6.550622	-7.964858
C	-8.938848	7.886333	-7.810644
H	-9.581276	5.89367	-8.212826
H	-9.673201	8.368044	-8.444253
C	-6.331318	5.997381	-5.302234
C	-8.369549	4.712397	-6.107388
C	-6.251886	4.632337	-5.376463
C	-7.448188	6.630237	-5.261728
C	-8.432718	6.020372	-5.878796
C	-7.298791	3.967656	-5.859264
H	-7.27344	2.898123	-6.153461
H	-9.350067	4.269222	-5.876788
C	-4.367562	7.144788	-7.164085
C	-2.283487	8.714941	-6.676627
C	-4.5715	8.468306	-6.933975
C	-3.138931	6.605483	-7.117986
C	-2.096562	7.411389	-6.983404
C	-3.516369	9.194656	-6.502032
H	-5.266683	9.029913	-7.592148
H	-1.100362	6.93727	-6.833519
H	-3.653411	10.28687	-6.355474
H	-1.382656	9.348194	-6.596844
C	-5.269827	4.059464	-4.690678
C	-4.283238	4.783449	-4.142445
H	-5.222669	2.953654	-4.643691
H	-3.736454	4.310701	-3.30008
C	-3.980422	4.402946	-7.006052
C	-2.944638	5.244503	-7.150533
H	-3.828723	3.304095	-6.818905
H	-2.043047	4.858812	-7.666579
C	-9.485465	6.788146	-6.093306
C	-9.700054	7.960558	-5.467553
H	-10.22361	6.487912	-6.848155
C	-7.741783	7.592037	-4.418546
C	-8.714386	8.492573	-4.775125
C	-8.975924	9.499779	-3.939699
C	-8.058437	9.717958	-2.983279
H	-9.458967	10.40933	-4.348749
H	-8.01356	10.70586	-2.497802
H	-10.48588	8.675405	-5.848097
C	-7.300064	8.764975	-2.501452
C	-7.05158	7.69593	-3.275125
C	-7.098085	8.622128	-1.205167
C	-6.293751	7.650462	-0.7556152
H	-7.65642	9.304054	-0.561151
H	-6.399602	7.481385	0.3415949
C	-6.323298	6.657866	-2.806263
C	-6.105645	6.576182	-1.513
H	-6.225791	5.71411	-3.403563
H	-5.331817	5.836298	-1.168103
78
Simulation Step: 500 Simulation Time (ps): 0.5 PotentialEnergy: 45.90998 kcal/mol Positions: A
C	-5.167043	7.955134	-5.067578
C	-3.460921	6.803569	-3.54934
C	-4.24532	8.679789	-4.521544
C	-5.2347	6.635384	-4.958065
C	-4.291457	6.026401	-4.250839
C	-3.247567	8.028369	-3.937961
H	-2.394916	8.639472	-3.562275
H	-2.955745	6.445613	-2.654159
C	-6.161924	8.615378	-5.657101
C	-8.27899	9.776289	-6.72352
C	-6.908021	7.945346	-6.565137
C	-6.150792	9.951815	-5.740505
C	-7.367221	10.45731	-5.996455
C	-8.083609	8.467114	-6.894664
H	-7.536996	11.47956	-5.652319
H	-8.912749	10.38479	-7.393287
C	-5.041032	10.63019	-5.448641
C	-4.004986	9.909928	-4.98709
H	-4.827247	11.64621	-5.79736
H	-2.972167	10.32472	-5.073243
C	-6.442749	6.89885	-7.232365
C	-5.945911	4.282894	-7.584855
C	-5.304113	6.395544	-6.821056
C	-7.31505	6.059258	-7.853243
C	-7.087171	4.794584	-7.95903
C	-5.179563	5.084156	-6.903387
H	-7.67641	4.23416	-8.681987
H	-5.549148	3.482735	-8.236427
C	-8.579568	6.477191	-8.054058
C	-8.893045	7.757723	-7.676135
H	-9.196714	5.966723	-8.799071
H	-9.791967	8.26741	-8.096481
C	-6.361327	5.994148	-5.297584
C	-8.379642	4.723472	-6.317572
C	-6.287215	4.680614	-5.38408
C	-7.596969	6.516389	-5.183091
C	-8.555501	6.00914	-5.941408
C	-7.343626	4.011546	-5.884379
H	-7.431333	2.960404	-5.512727
H	-9.242958	4.214149	-6.752344
C	-4.245826	7.193332	-6.76271
C	-2.354641	8.677299	-5.954167
C	-4.365813	8.494974	-7.013705
C	-3.043944	6.670216	-6.588965
C	-2.00458	7.442951	-6.318696
C	-3.353805	9.24676	-6.671288
H	-5.366828	8.926743	-7.159919
H	-1.037663	6.972646	-6.013601
H	-3.506925	10.34787	-6.583824
H	-1.590855	9.345047	-5.510089
C	-5.162026	4.092508	-4.921025
C	-4.174421	4.724535	-4.297529
H	-5.112758	2.987767	-4.910134
H	-3.439501	4.18208	-3.67586
C	-3.97794	4.591352	-6.688802
C	-2.908535	5.391065	-6.87135
H	-3.814764	3.521391	-6.927438
H	-2.035888	4.958745	-7.39233
C	-9.720517	6.646966	-6.064826
C	-9.924109	7.746832	-5.332984
H	-10.11454	6.623497	-7.093349
C	-7.943613	7.462928	-4.300051
C	-8.936493	8.258504	-4.551692
C	-8.985853	9.477979	-3.962652
C	-8.193558	9.648252	-2.878217
H	-9.45472	10.31936	-4.484418
H	-7.978051	10.69653	-2.586381
H	-10.93181	8.192794	-5.342554
C	-7.322887	8.719491	-2.461984
C	-7.297248	7.595653	-3.16411
C	-7.155066	8.594813	-1.138348
C	-6.421699	7.543933	-0.7399575
H	-7.44293	9.41342	-0.4384546
H	-6.261178	7.33919	0.3355454
C	-6.420681	6.633387	-2.863909
C	-6.041396	6.608439	-1.596751
H	-6.415159	5.743566	-3.478311
H	-5.460921	5.733237	-1.241927
78
Simulation Step: 600 Simulation Time (ps): 0.6 PotentialEnergy: 42.41513 kcal/mol Positions: A
C	-5.141762	7.926259	-4.890631
C	-3.080763	6.574775	-3.954212
C	-4.07187	8.623779	-4.409417
C	-5.243077	6.612738	-4.767715
C	-4.189154	5.870383	-4.314223
C	-3.126539	7.894769	-3.784704
H	-2.496292	8.302909	-3.003826
H	-2.255613	5.98253	-3.529861
C	-6.120512	8.569143	-5.564178
C	-8.492449	9.495022	-6.116782
C	-6.888688	7.961005	-6.452948
C	-6.284315	9.870785	-5.417893
C	-7.542468	10.28013	-5.592754
C	-8.103342	8.421982	-6.705032
H	-7.917966	11.18114	-5.09552
H	-9.447195	9.432989	-5.599888
C	-5.36649	10.58543	-4.782598
C	-4.249286	9.972486	-4.335224
H	-5.389779	11.67613	-4.657194
H	-3.427387	10.6088	-4.015012
C	-6.499188	6.84268	-7.062749
C	-5.75735	4.400592	-7.960099
C	-5.259838	6.392653	-6.945411
C	-7.254939	6.197292	-7.911661
C	-6.914074	4.961292	-8.353396
C	-4.916856	5.165607	-7.309802
H	-7.387833	4.549952	-9.254887
H	-5.743632	3.373973	-7.578594
C	-8.470647	6.688275	-8.219573
C	-8.896229	7.734856	-7.510912
H	-8.932159	6.508224	-9.206298
H	-9.978939	7.844814	-7.492554
C	-6.37754	5.962447	-5.183351
C	-8.42382	4.619135	-6.26909
C	-6.332573	4.626567	-5.319624
C	-7.5909	6.526254	-5.168386
C	-8.588917	5.891836	-5.850422
C	-7.27529	4.000194	-6.052404
H	-7.265931	2.917948	-6.031738
H	-9.204376	3.98966	-6.718229
C	-4.294135	7.286142	-6.564605
C	-2.251383	8.868995	-5.789815
C	-4.206795	8.527222	-7.021198
C	-3.196536	6.741949	-6.038377
C	-2.375385	7.582718	-5.383726
C	-3.218107	9.334804	-6.56506
H	-5.060194	8.943457	-7.560407
H	-1.679144	7.173258	-4.650693
H	-3.094166	10.33164	-6.979907
H	-1.218881	9.234097	-5.905686
C	-5.211669	3.963556	-5.005034
C	-4.067379	4.587185	-4.743649
H	-5.218777	2.922035	-5.314184
H	-3.096704	4.062714	-4.777158
C	-3.759613	4.658854	-6.907542
C	-3.007702	5.400537	-6.087851
H	-3.506283	3.621744	-7.118423
H	-2.066015	4.958664	-5.741119
C	-9.779153	6.514688	-5.820324
C	-9.854688	7.791543	-5.470906
H	-10.66958	5.876868	-5.667224
C	-7.918996	7.545536	-4.310017
C	-9.003056	8.279982	-4.597669
C	-9.39798	9.233097	-3.743798
C	-8.82394	9.300731	-2.544984
H	-9.971108	10.07691	-4.201982
H	-9.25303	10.00454	-1.842244
H	-10.81499	8.282361	-5.577024
C	-7.68294	8.675815	-2.268284
C	-7.347708	7.641084	-3.081566
C	-7.072222	8.725362	-1.03727
C	-6.45639	7.631251	-0.5982537
H	-6.598453	9.650684	-0.6744361
H	-5.762368	7.801384	0.2093782
C	-6.586848	6.650559	-2.655343
C	-6.005517	6.738879	-1.470438
H	-6.61974	5.664157	-3.165063
H	-5.472019	5.873188	-1.105024
78
Simulation Step: 700 Simulation Time (ps): 0.7 PotentialEnergy: 46.02645 kcal/mol Positions: A
C	-5.248367	7.784918	-4.696901
C	-3.211846	6.413567	-3.70626
C	-4.232348	8.464484	-4.129684
C	-5.317346	6.464869	-4.607408
C	-4.283375	5.746507	-4.143541
C	-3.269078	7.727509	-3.568443
H	-2.682526	8.222092	-2.764582
H	-2.281758	5.824027	-3.510197
C	-6.247711	8.46606	-5.263302
C	-8.583332	9.486788	-5.994812
C	-6.875186	7.961081	-6.341524
C	-6.573816	9.647194	-4.873619
C	-7.821135	10.10036	-5.083793
C	-8.14595	8.357442	-6.587638
H	-8.108702	11.078	-4.630892
H	-9.505505	10.02279	-6.348297
C	-5.688191	10.26685	-4.100681
C	-4.648263	9.612803	-3.522321
H	-5.979633	11.25303	-3.709292
H	-3.932817	10.1347	-2.847372
C	-6.432655	6.936474	-7.045128
C	-5.606514	4.811881	-8.287327
C	-5.134151	6.614134	-6.986135
C	-7.313647	6.154196	-7.691867
C	-6.902771	5.0369	-8.244408
C	-4.781806	5.434949	-7.455114
H	-7.614768	4.17971	-8.320845
H	-5.19139	3.967875	-8.862253
C	-8.510364	6.597439	-8.051161
C	-8.920756	7.742565	-7.4967
H	-9.30906	5.850863	-8.26378
H	-9.892779	8.13657	-7.850139
C	-6.392426	5.850084	-5.117652
C	-8.226701	4.787398	-6.500508
C	-6.336272	4.543379	-5.434706
C	-7.591409	6.409117	-5.010797
C	-8.558402	5.802987	-5.721396
C	-7.298701	3.961229	-6.162523
H	-6.911666	3.202436	-6.86367
H	-9.157274	4.431268	-6.961695
C	-4.183505	7.404143	-6.506591
C	-2.25482	8.967716	-5.638237
C	-4.252918	8.702581	-6.647475
C	-3.05941	6.860842	-6.080571
C	-2.122137	7.669188	-5.624115
C	-3.222307	9.487281	-6.44154
H	-5.099437	9.008673	-7.287698
H	-1.091396	7.320679	-5.458234
H	-3.268242	10.57712	-6.673763
H	-1.42877	9.60925	-5.256912
C	-5.139795	3.968667	-5.285731
C	-4.24132	4.485311	-4.466668
H	-4.972753	3.032709	-5.867414
H	-3.906179	3.907342	-3.593548
C	-3.80412	4.791488	-6.815221
C	-2.95046	5.55818	-6.08385
H	-3.63887	3.706324	-7.021636
H	-2.063513	5.073933	-5.633682
C	-9.689511	6.477187	-5.898139
C	-9.688334	7.726941	-5.541759
H	-10.65854	5.986809	-6.062727
C	-7.922657	7.360055	-4.131589
C	-9.035776	8.05195	-4.443568
C	-9.590241	8.907214	-3.606557
C	-8.992456	9.100071	-2.424542
H	-10.47489	9.502523	-3.834784
H	-9.670454	9.109602	-1.54814
H	-10.10493	8.543295	-6.168818
C	-7.731885	8.641514	-2.192448
C	-7.358002	7.562821	-2.907227
C	-7.153118	8.778523	-0.9913052
C	-6.253753	7.900607	-0.5763006
H	-7.246778	9.712514	-0.4185746
H	-5.319146	8.358786	-0.1760833
C	-6.420646	6.700608	-2.536838
C	-6.00423	6.823077	-1.293923
H	-6.369359	5.740883	-3.104589
H	-5.411128	6.004967	-0.8328516
78
Simulation Step: 800 Simulation Time (ps): 0.8 PotentialEnergy: 39.69331 kcal/mol Positions: A
C	-5.508304	7.638441	-4.299078
C	-3.529871	6.282122	-3.179121
C	-4.589343	8.296568	-3.624132
C	-5.573088	6.318029	-4.270235
C	-4.536394	5.602864	-3.782501
C	-3.480151	7.596388	-3.281995
H	-2.503784	8.107229	-3.381335
H	-2.75936	5.704183	-2.64283
C	-6.416996	8.325438	-4.964826
C	-8.49931	9.630826	-5.945088
C	-6.927323	8.002233	-6.162331
C	-6.948408	9.358498	-4.274344
C	-8.039301	9.9864	-4.73741
C	-8.014992	8.629958	-6.630325
H	-8.645996	10.6365	-4.106312
H	-9.270137	10.25681	-6.430274
C	-6.172066	10.05124	-3.404321
C	-4.974722	9.475951	-3.089969
H	-6.67523	10.6577	-2.638883
H	-4.183709	10.18456	-2.75222
C	-6.389449	7.048687	-6.929698
C	-5.620461	4.772014	-8.05513
C	-5.094788	6.707976	-6.946029
C	-7.255125	6.212096	-7.509198
C	-6.840811	5.234852	-8.284255
C	-4.759271	5.488578	-7.331546
H	-7.425623	4.839113	-9.11584
H	-5.245203	4.090138	-8.837362
C	-8.505878	6.638142	-7.725402
C	-8.89841	7.83882	-7.263341
H	-9.092613	6.04669	-8.436786
H	-9.95041	8.201105	-7.290421
C	-6.506893	5.675151	-4.997365
C	-8.175184	4.69844	-6.632836
C	-6.237765	4.461057	-5.444229
C	-7.7636	6.097385	-4.847549
C	-8.61392	5.658927	-5.769769
C	-7.006023	4.103073	-6.465003
H	-6.633004	3.326821	-7.185778
H	-8.896622	4.209003	-7.286455
C	-4.088403	7.50702	-6.513556
C	-2.18697	9.235393	-5.700347
C	-4.368812	8.804277	-6.326828
C	-2.881353	7.019592	-6.153873
C	-1.924182	7.913754	-5.892973
C	-3.422347	9.633629	-5.833155
H	-5.319076	9.197494	-6.704673
H	-0.868518	7.551216	-5.919805
H	-3.711965	10.61232	-5.381779
H	-1.467175	9.897429	-5.19267
C	-5.148157	3.776213	-5.05973
C	-4.334016	4.361039	-4.232885
H	-5.239443	2.669983	-4.961424
H	-3.485421	3.77522	-3.859903
C	-3.536689	5.028771	-7.054023
C	-2.534666	5.753851	-6.526146
H	-3.225039	4.071018	-7.511591
H	-1.677514	5.289031	-5.999336
C	-9.621766	6.517301	-6.062689
C	-9.908608	7.606459	-5.381058
H	-10.22669	6.209335	-6.923136
C	-8.134184	7.056996	-3.985354
C	-9.073916	7.929176	-4.403305
C	-9.445129	8.869018	-3.549899
C	-8.868979	8.964288	-2.357643
H	-10.21415	9.554933	-3.912711
H	-9.152745	9.829985	-1.729462
H	-10.96165	7.840763	-5.177631
C	-7.771091	8.300246	-2.121854
C	-7.522709	7.188453	-2.787462
C	-6.953513	8.804746	-1.212429
C	-5.93715	8.022621	-0.8865303
H	-6.919315	9.890684	-0.9780461
H	-5.526845	8.082553	0.1422557
C	-6.360719	6.578133	-2.591212
C	-5.537632	7.04887	-1.690326
H	-6.152968	5.652754	-3.104348
H	-4.522093	6.603546	-1.627321
78
Simulation Step: 900 Simulation Time (ps): 0.9 PotentialEnergy: 46.84616 kcal/mol Positions: A
C	-5.505098	7.516033	-4.114156
C	-3.512722	6.123043	-3.047126
C	-4.868775	7.999733	-3.012343
C	-5.425541	6.245446	-4.347175
C	-4.286069	5.634202	-3.996802
C	-3.81307	7.313776	-2.529709
H	-3.30285	7.632973	-1.63864
H	-2.576363	5.640363	-2.7738
C	-6.471264	8.232454	-4.661922
C	-8.371335	9.750555	-5.74185
C	-7.068913	7.836366	-5.820365
C	-6.974903	9.254278	-3.981361
C	-7.950484	9.993755	-4.512602
C	-8.039818	8.607389	-6.344778
H	-8.488273	10.67606	-3.818804
H	-8.755756	10.59513	-6.304688
C	-6.423816	9.714144	-2.8685
C	-5.229835	9.248111	-2.608777
H	-7.095878	9.986575	-2.026558
H	-4.561796	9.868345	-2.021556
C	-6.413776	7.044332	-6.67972
C	-5.544027	4.850046	-7.847487
C	-5.123181	6.711125	-6.584172
C	-7.06794	6.564371	-7.714024
C	-6.59079	5.518661	-8.368465
C	-4.70238	5.531749	-7.043867
H	-7.274173	5.062624	-9.099912
H	-5.61138	3.752566	-7.773421
C	-8.323111	6.926218	-7.910531
C	-8.702041	8.137947	-7.439717
H	-9.024197	6.246784	-8.4254
H	-9.535877	8.647104	-7.910548
C	-6.467299	5.632482	-4.925681
C	-8.154585	4.627227	-6.628125
C	-6.339617	4.356801	-5.289945
C	-7.663107	6.221747	-5.053478
C	-8.537346	5.700476	-5.921371
C	-7.151605	3.841204	-6.222666
H	-7.390574	2.787692	-6.022521
H	-8.564356	4.376815	-7.64009
C	-4.244708	7.56197	-6.071962
C	-2.460925	9.476571	-5.657146
C	-4.632811	8.796872	-5.65774
C	-2.951493	7.338035	-6.279378
C	-2.059392	8.301276	-6.128544
C	-3.752573	9.732029	-5.368737
H	-5.6351	9.209633	-5.891991
H	-1.00874	8.046133	-6.187622
H	-4.129789	10.68189	-4.998215
H	-1.718979	10.26625	-5.444556
C	-5.147077	3.787717	-5.027134
C	-4.166279	4.399538	-4.356774
H	-5.014408	2.73715	-5.324848
H	-3.286295	3.8067	-4.095908
C	-3.377087	5.317818	-7.140801
C	-2.514965	6.125446	-6.569685
H	-2.969774	4.407116	-7.559941
H	-1.579644	5.722816	-6.154541
C	-9.828004	6.031195	-5.729611
C	-10.12323	7.165439	-5.135363
H	-10.57716	5.313527	-6.125424
C	-8.180428	6.935554	-4.052302
C	-9.348997	7.575204	-4.159213
C	-9.558336	8.720732	-3.491113
C	-8.757225	9.082283	-2.49085
H	-10.38848	9.390575	-3.843806
H	-9.094937	9.676352	-1.640178
H	-10.78333	7.825657	-5.707165
C	-7.610492	8.420938	-2.399784
C	-7.444678	7.217202	-2.993638
C	-6.727615	8.692303	-1.41174
C	-5.515151	8.074095	-1.488034
H	-7.181471	8.488492	-0.4433632
H	-4.559016	8.515574	-1.210114
C	-6.525838	6.323888	-2.567651
C	-5.508935	6.797535	-1.858673
H	-6.299949	5.499435	-3.267705
H	-4.672698	6.137414	-1.65993
78
Simulation Step: 1000 Simulation Time (ps): 1 PotentialEnergy: 57.96865 kcal/mol Positions: A
C	-5.711911	7.450879	-3.975708
C	-3.373161	6.261278	-3.449976
C	-4.862462	7.947278	-3.067611
C	-5.482523	6.194877	-4.369813
C	-4.298523	5.624682	-4.183576
C	-3.743182	7.287209	-2.710053
H	-3.616998	7.206882	-1.612358
H	-2.30117	5.942333	-3.465616
C	-6.670552	8.239544	-4.478848
C	-8.585312	9.720758	-5.515222
C	-6.965573	8.158246	-5.766666
C	-6.910896	9.434709	-4.001945
C	-7.946364	10.11477	-4.416842
C	-8.043093	8.753062	-6.240355
H	-8.043762	11.16707	-4.066854
H	-9.338483	10.38706	-5.995507
C	-6.097275	9.979911	-3.081873
C	-5.155626	9.160988	-2.557602
H	-6.432062	10.8524	-2.490088
H	-4.622952	9.471251	-1.642497
C	-6.328283	7.254531	-6.491322
C	-5.184576	5.183615	-7.51247
C	-4.984755	7.170635	-6.411442
C	-6.8383	6.765085	-7.608503
C	-6.346585	5.619575	-8.071879
C	-4.465221	5.951847	-6.640985
H	-6.888275	4.962561	-8.793832
H	-4.752489	4.222418	-7.857285
C	-7.94227	7.322472	-8.048086
C	-8.546184	8.278301	-7.368167
H	-8.361977	7.146244	-9.050888
H	-9.427488	8.730928	-7.854098
C	-6.371889	5.547345	-5.10788
C	-8.320219	4.173526	-6.303761
C	-6.20267	4.272323	-5.433087
C	-7.630783	6.015491	-5.101012
C	-8.591053	5.367666	-5.777407
C	-7.10845	3.608699	-6.185796
H	-7.08792	2.526791	-6.284497
H	-9.002362	3.927551	-7.126524
C	-4.08815	8.246683	-6.46471
C	-2.189478	10.16181	-6.229413
C	-4.16012	9.135862	-5.462451
C	-2.806977	8.153114	-7.027737
C	-1.745414	9.123272	-6.963926
C	-3.106606	9.972021	-5.264645
H	-4.728105	8.814811	-4.552383
H	-1.261865	9.360674	-7.925183
H	-3.128324	10.80405	-4.521725
H	-1.952394	11.17231	-6.59993
C	-5.049301	3.667151	-5.157451
C	-4.090727	4.345133	-4.536887
H	-4.894046	2.647831	-5.534629
H	-3.400002	3.826417	-3.839504
C	-3.113429	5.876949	-6.672482
C	-2.463479	6.885944	-7.318295
H	-2.640697	5.159193	-5.971317
H	-1.538086	6.676704	-7.904751
C	-9.817776	5.850799	-5.798147
C	-10.09227	6.791788	-4.903756
H	-10.58926	5.51895	-6.512179
C	-7.950318	6.855217	-4.123259
C	-9.149941	7.394688	-4.174373
C	-9.414853	8.403345	-3.349108
C	-8.450184	8.907425	-2.593854
H	-10.2385	9.088607	-3.522798
H	-8.385607	10.01709	-2.476878
H	-11.07987	6.767821	-4.416823
C	-7.344305	8.215896	-2.370662
C	-7.225354	7.058793	-3.013466
C	-6.60044	8.458254	-1.310886
C	-6.083931	7.41483	-0.6415178
H	-6.86192	9.361505	-0.728755
H	-6.492874	7.371859	0.3935807
C	-6.398374	6.11236	-2.536316
C	-5.855678	6.266487	-1.316289
H	-5.894759	5.405962	-3.235685
H	-5.503115	5.37102	-0.7502087
78
Simulation Step: 1100 Simulation Time (ps): 1.1 PotentialEnergy: 239.652 kcal/mol Positions: A
C	-5.351625	7.58883	-4.153857
C	-3.272185	6.269137	-3.564591
C	-4.691393	7.954966	-3.040816
C	-5.333361	6.275127	-4.505236
C	-4.239388	5.60308	-4.17871
C	-3.542818	7.351315	-2.828215
H	-2.873427	7.632565	-1.990389
H	-2.231197	6.066751	-3.849703
C	-5.887912	8.667958	-4.760779
C	-8.219398	9.504866	-5.576698
C	-6.112666	8.903692	-6.052217
C	-6.546984	9.515218	-3.951273
C	-7.755012	9.952154	-4.363104
C	-7.380027	8.964147	-6.462564
H	-8.0341	10.99169	-4.159626
H	-9.261215	9.132378	-5.577192
C	-6.038989	9.825078	-2.754648
C	-4.950426	9.115246	-2.428891
H	-6.709081	10.12565	-1.940104
H	-4.143251	9.579262	-1.819344
C	-5.248196	8.585312	-6.986668
C	-3.287336	6.983958	-7.2596
C	-4.089277	9.211632	-7.117158
C	-5.544701	7.412428	-7.524029
C	-4.590343	6.495176	-7.309297
C	-2.939576	8.507379	-7.343382
H	-4.841799	5.432009	-7.155486
H	-2.682418	6.351271	-6.582174
C	-6.836433	7.258993	-7.969076
C	-7.738229	7.827992	-7.148841
H	-7.094126	6.631999	-8.850019
H	-8.803065	7.54297	-7.336807
C	-6.306852	5.588405	-5.105471
C	-8.258404	4.090503	-6.117647
C	-6.022055	4.388673	-5.64791
C	-7.612247	5.924962	-4.923029
C	-8.575219	5.201948	-5.501114
C	-6.978605	3.746878	-6.272163
H	-6.675894	2.79088	-6.767002
H	-8.93745	3.241069	-6.101892
C	-4.079309	10.51816	-6.664925
C	-3.065622	13.02422	-6.149249
C	-3.315238	10.68956	-5.53673
C	-3.764053	11.51342	-7.503811
C	-4.318522	12.95217	-6.966309
C	-2.521989	11.80108	-5.497113
H	-3.237946	9.915648	-4.74809
H	-4.40931	13.75599	-7.717704
H	-1.470403	11.72732	-5.072714
H	-2.296802	13.46643	-6.81268
C	-4.945945	3.729787	-5.312056
C	-4.040394	4.355492	-4.569485
H	-4.848572	2.639742	-5.418391
H	-3.170092	3.795402	-4.206982
C	-2.070323	9.519581	-8.037189
C	-2.424148	10.97197	-7.851089
H	-0.9950776	9.307621	-8.262907
H	-1.560832	11.58523	-7.494102
C	-9.785201	5.757249	-5.640481
C	-10.12874	6.724794	-4.76203
H	-10.51374	5.374571	-6.371362
C	-7.962069	6.733823	-3.948561
C	-9.181068	7.266027	-3.971977
C	-9.233006	8.508656	-3.514285
C	-8.314256	8.918758	-2.639953
H	-9.904446	9.2073	-4.031651
H	-8.12837	10.00484	-2.579254
H	-11.15634	7.115189	-4.728568
C	-7.388365	8.049866	-2.17221
C	-7.168298	6.942674	-2.901025
C	-6.953692	8.137848	-0.9117438
C	-6.425185	7.046041	-0.3543756
H	-6.709218	9.154327	-0.5427095
H	-6.011677	7.093259	0.665961
C	-6.434007	5.958037	-2.363261
C	-6.323645	5.884073	-1.033614
H	-6.093551	5.155287	-3.013004
H	-5.865324	4.994743	-0.5642607
78
Simulation Step: 1200 Simulation Time (ps): 1.2 PotentialEnergy: 444.9888 kcal/mol Positions: A
C	-4.910093	7.932906	-4.217276
C	-3.048005	6.383387	-3.473286
C	-4.696121	7.838266	-2.907647
C	-5.043798	6.607391	-4.662081
C	-3.98745	5.838315	-4.286288
C	-3.463296	7.365811	-2.65832
H	-2.794343	7.82563	-1.923259
H	-2.212578	5.742088	-3.170423
C	-5.465232	9.229251	-4.564088
C	-6.832032	8.216043	-6.204906
C	-5.666295	10.02038	-5.685731
C	-6.650495	9.133586	-4.060465
C	-7.473018	8.516698	-4.971619
C	-5.77727	9.041557	-6.543203
H	-8.39352	9.128222	-5.101891
H	-7.395095	7.689514	-7.001143
C	-6.571617	9.236741	-2.72674
C	-5.441416	8.704954	-2.181275
H	-6.9554	10.1881	-2.314102
H	-5.178991	8.926008	-1.14363
C	-5.720379	11.3128	-6.308706
C	-5.208006	13.06709	-8.253306
C	-6.992144	12.29271	-6.677721
C	-4.481206	11.18853	-7.102742
C	-4.438081	11.98448	-8.200178
C	-6.538005	13.08173	-7.713573
H	-3.61334	11.81671	-8.906399
H	-4.934303	13.81123	-9.018351
C	-3.846605	9.901407	-7.287169
C	-4.534748	8.74999	-7.038894
H	-2.826418	9.820107	-7.699876
H	-4.278478	7.756027	-7.456699
C	-6.125449	5.856471	-5.104032
C	-8.064234	4.42703	-6.32569
C	-5.873502	4.683391	-5.763259
C	-7.422677	6.178563	-4.905843
C	-8.360051	5.482005	-5.567663
C	-6.816977	3.989597	-6.391146
H	-6.596486	3.053849	-6.929729
H	-8.677812	4.279806	-7.236713
C	-8.663226	12.43086	-6.45963
C	-11.62506	12.19969	-7.015872
C	-9.547001	13.53121	-6.088831
C	-9.498797	11.62527	-7.375775
C	-11.05411	10.92389	-7.276226
C	-10.85198	13.49658	-6.659221
H	-9.247173	14.42289	-5.480462
H	-11.3693	10.27483	-8.13758
H	-11.17731	14.55461	-7.000217
H	-12.6618	12.41173	-7.325521